VARIABLES="x","y","u","v","psi","w","Hx","Hy","modH","M0","Mx","My","alpha","Theta","chi","MxH","tm_torque" 
ZONE NODES=6724, ELEMENTS=6561, DATAPACKING=BLOCK, VARLOCATION=([1,2]=nodal,[3,4,5,6,7,8,9,10,11,12,13,14,15,16,17]=CELLCENTERED), ZONETYPE=FEQUADRILATERAL
0.0 
0.012345679012345678 0.024691358024691357 0.037037037037037035 0.04938271604938271 0.06172839506172839 0.07407407407407407 0.08641975308641975 0.09876543209876543 0.1111111111111111 0.12345679012345678 0.13580246913580246 0.14814814814814814 0.16049382716049382 0.1728395061728395 0.18518518518518517 0.19753086419753085 0.20987654320987653 0.2222222222222222 0.2345679012345679 0.24691358024691357 0.25925925925925924 0.2716049382716049 0.2839506172839506 0.2962962962962963 0.30864197530864196 0.32098765432098764 0.3333333333333333 0.345679012345679 0.35802469135802467 0.37037037037037035 0.38271604938271603 0.3950617283950617 0.4074074074074074 0.41975308641975306 0.43209876543209874 0.4444444444444444 0.4567901234567901 0.4691358024691358 0.48148148148148145 0.49382716049382713 0.5061728395061729 0.5185185185185185 0.5308641975308641 0.5432098765432098 0.5555555555555556 0.5679012345679012 0.5802469135802468 0.5925925925925926 0.6049382716049383 0.6172839506172839 0.6296296296296295 0.6419753086419753 0.654320987654321 0.6666666666666666 0.6790123456790123 0.691358024691358 0.7037037037037037 0.7160493827160493 0.728395061728395 0.7407407407407407 0.7530864197530864 0.7654320987654321 0.7777777777777777 0.7901234567901234 0.8024691358024691 0.8148148148148148 0.8271604938271604 0.8395061728395061 0.8518518518518519 0.8641975308641975 0.8765432098765431 0.8888888888888888 0.9012345679012346 0.9135802469135802 0.9259259259259258 0.9382716049382716 0.9506172839506173 0.9629629629629629 0.9753086419753085 0.9876543209876543 1.0 0.0 0.012345679012345678 0.024691358024691357 0.037037037037037035 0.04938271604938271 0.06172839506172839 0.07407407407407407 0.08641975308641975 0.09876543209876543 0.1111111111111111 0.12345679012345678 0.13580246913580246 0.14814814814814814 0.16049382716049382 0.1728395061728395 0.18518518518518517 0.19753086419753085 0.20987654320987653 0.2222222222222222 0.2345679012345679 0.24691358024691357 0.25925925925925924 0.2716049382716049 0.2839506172839506 0.2962962962962963 0.30864197530864196 0.32098765432098764 0.3333333333333333 0.345679012345679 0.35802469135802467 0.37037037037037035 0.38271604938271603 0.3950617283950617 0.4074074074074074 0.41975308641975306 0.43209876543209874 0.4444444444444444 0.4567901234567901 0.4691358024691358 0.48148148148148145 0.49382716049382713 0.5061728395061729 0.5185185185185185 0.5308641975308641 0.5432098765432098 0.5555555555555556 0.5679012345679012 0.5802469135802468 0.5925925925925926 0.6049382716049383 0.6172839506172839 0.6296296296296295 0.6419753086419753 0.654320987654321 0.6666666666666666 0.6790123456790123 0.691358024691358 0.7037037037037037 0.7160493827160493 0.728395061728395 0.7407407407407407 0.7530864197530864 0.7654320987654321 0.7777777777777777 0.7901234567901234 0.8024691358024691 0.8148148148148148 0.8271604938271604 0.8395061728395061 0.8518518518518519 0.8641975308641975 0.8765432098765431 0.8888888888888888 0.9012345679012346 0.9135802469135802 0.9259259259259258 0.9382716049382716 0.9506172839506173 0.9629629629629629 0.9753086419753085 0.9876543209876543 1.0 0.0 0.012345679012345678 0.024691358024691357 0.037037037037037035 0.04938271604938271 0.06172839506172839 0.07407407407407407 0.08641975308641975 0.09876543209876543 0.1111111111111111 0.12345679012345678 0.13580246913580246 0.14814814814814814 0.16049382716049382 0.1728395061728395 0.18518518518518517 0.19753086419753085 0.20987654320987653 0.2222222222222222 0.2345679012345679 0.24691358024691357 0.25925925925925924 0.2716049382716049 0.2839506172839506 0.2962962962962963 0.30864197530864196 0.32098765432098764 0.3333333333333333 0.345679012345679 0.35802469135802467 0.37037037037037035 0.38271604938271603 0.3950617283950617 0.4074074074074074 0.41975308641975306 0.43209876543209874 0.4444444444444444 0.4567901234567901 0.4691358024691358 0.48148148148148145 0.49382716049382713 0.5061728395061729 0.5185185185185185 0.5308641975308641 0.5432098765432098 0.5555555555555556 0.5679012345679012 0.5802469135802468 0.5925925925925926 0.6049382716049383 0.6172839506172839 0.6296296296296295 0.6419753086419753 0.654320987654321 0.6666666666666666 0.6790123456790123 0.691358024691358 0.7037037037037037 0.7160493827160493 0.728395061728395 0.7407407407407407 0.7530864197530864 0.7654320987654321 0.7777777777777777 0.7901234567901234 0.8024691358024691 0.8148148148148148 0.8271604938271604 0.8395061728395061 0.8518518518518519 0.8641975308641975 0.8765432098765431 0.8888888888888888 0.9012345679012346 0.9135802469135802 0.9259259259259258 0.9382716049382716 0.9506172839506173 0.9629629629629629 0.9753086419753085 0.9876543209876543 1.0 0.0 0.012345679012345678 0.024691358024691357 0.037037037037037035 0.04938271604938271 0.06172839506172839 0.07407407407407407 0.08641975308641975 0.09876543209876543 0.1111111111111111 0.12345679012345678 0.13580246913580246 0.14814814814814814 0.16049382716049382 0.1728395061728395 0.18518518518518517 0.19753086419753085 0.20987654320987653 0.2222222222222222 0.2345679012345679 0.24691358024691357 0.25925925925925924 0.2716049382716049 0.2839506172839506 0.2962962962962963 0.30864197530864196 0.32098765432098764 0.3333333333333333 0.345679012345679 0.35802469135802467 0.37037037037037035 0.38271604938271603 0.3950617283950617 0.4074074074074074 0.41975308641975306 0.43209876543209874 0.4444444444444444 0.4567901234567901 0.4691358024691358 0.48148148148148145 0.49382716049382713 0.5061728395061729 0.5185185185185185 0.5308641975308641 0.5432098765432098 0.5555555555555556 0.5679012345679012 0.5802469135802468 0.5925925925925926 0.6049382716049383 0.6172839506172839 0.6296296296296295 0.6419753086419753 0.654320987654321 0.6666666666666666 0.6790123456790123 0.691358024691358 0.7037037037037037 0.7160493827160493 0.728395061728395 0.7407407407407407 0.7530864197530864 0.7654320987654321 0.7777777777777777 0.7901234567901234 0.8024691358024691 0.8148148148148148 0.8271604938271604 0.8395061728395061 0.8518518518518519 0.8641975308641975 0.8765432098765431 0.8888888888888888 0.9012345679012346 0.9135802469135802 0.9259259259259258 0.9382716049382716 0.9506172839506173 0.9629629629629629 0.9753086419753085 0.9876543209876543 1.0 0.0 0.012345679012345678 0.024691358024691357 0.037037037037037035 0.04938271604938271 0.06172839506172839 0.07407407407407407 0.08641975308641975 0.09876543209876543 0.1111111111111111 0.12345679012345678 0.13580246913580246 0.14814814814814814 0.16049382716049382 0.1728395061728395 0.18518518518518517 0.19753086419753085 0.20987654320987653 0.2222222222222222 0.2345679012345679 0.24691358024691357 0.25925925925925924 0.2716049382716049 0.2839506172839506 0.2962962962962963 0.30864197530864196 0.32098765432098764 0.3333333333333333 0.345679012345679 0.35802469135802467 0.37037037037037035 0.38271604938271603 0.3950617283950617 0.4074074074074074 0.41975308641975306 0.43209876543209874 0.4444444444444444 0.4567901234567901 0.4691358024691358 0.48148148148148145 0.49382716049382713 0.5061728395061729 0.5185185185185185 0.5308641975308641 0.5432098765432098 0.5555555555555556 0.5679012345679012 0.5802469135802468 0.5925925925925926 0.6049382716049383 0.6172839506172839 0.6296296296296295 0.6419753086419753 0.654320987654321 0.6666666666666666 0.6790123456790123 0.691358024691358 0.7037037037037037 0.7160493827160493 0.728395061728395 0.7407407407407407 0.7530864197530864 0.7654320987654321 0.7777777777777777 0.7901234567901234 0.8024691358024691 0.8148148148148148 0.8271604938271604 0.8395061728395061 0.8518518518518519 0.8641975308641975 0.8765432098765431 0.8888888888888888 0.9012345679012346 0.9135802469135802 0.9259259259259258 0.9382716049382716 0.9506172839506173 0.9629629629629629 0.9753086419753085 0.9876543209876543 1.0 0.0 0.012345679012345678 0.024691358024691357 0.037037037037037035 0.04938271604938271 0.06172839506172839 0.07407407407407407 0.08641975308641975 0.09876543209876543 0.1111111111111111 0.12345679012345678 0.13580246913580246 0.14814814814814814 0.16049382716049382 0.1728395061728395 0.18518518518518517 0.19753086419753085 0.20987654320987653 0.2222222222222222 0.2345679012345679 0.24691358024691357 0.25925925925925924 0.2716049382716049 0.2839506172839506 0.2962962962962963 0.30864197530864196 0.32098765432098764 0.3333333333333333 0.345679012345679 0.35802469135802467 0.37037037037037035 0.38271604938271603 0.3950617283950617 0.4074074074074074 0.41975308641975306 0.43209876543209874 0.4444444444444444 0.4567901234567901 0.4691358024691358 0.48148148148148145 0.49382716049382713 0.5061728395061729 0.5185185185185185 0.5308641975308641 0.5432098765432098 0.5555555555555556 0.5679012345679012 0.5802469135802468 0.5925925925925926 0.6049382716049383 0.6172839506172839 0.6296296296296295 0.6419753086419753 0.654320987654321 0.6666666666666666 0.6790123456790123 0.691358024691358 0.7037037037037037 0.7160493827160493 0.728395061728395 0.7407407407407407 0.7530864197530864 0.7654320987654321 0.7777777777777777 0.7901234567901234 0.8024691358024691 0.8148148148148148 0.8271604938271604 0.8395061728395061 0.8518518518518519 0.8641975308641975 0.8765432098765431 0.8888888888888888 0.9012345679012346 0.9135802469135802 0.9259259259259258 0.9382716049382716 0.9506172839506173 0.9629629629629629 0.9753086419753085 0.9876543209876543 1.0 0.0 0.012345679012345678 0.024691358024691357 0.037037037037037035 0.04938271604938271 0.06172839506172839 0.07407407407407407 0.08641975308641975 0.09876543209876543 0.1111111111111111 0.12345679012345678 0.13580246913580246 0.14814814814814814 0.16049382716049382 0.1728395061728395 0.18518518518518517 0.19753086419753085 0.20987654320987653 0.2222222222222222 0.2345679012345679 0.24691358024691357 0.25925925925925924 0.2716049382716049 0.2839506172839506 0.2962962962962963 0.30864197530864196 0.32098765432098764 0.3333333333333333 0.345679012345679 0.35802469135802467 0.37037037037037035 0.38271604938271603 0.3950617283950617 0.4074074074074074 0.41975308641975306 0.43209876543209874 0.4444444444444444 0.4567901234567901 0.4691358024691358 0.48148148148148145 0.49382716049382713 0.5061728395061729 0.5185185185185185 0.5308641975308641 0.5432098765432098 0.5555555555555556 0.5679012345679012 0.5802469135802468 0.5925925925925926 0.6049382716049383 0.6172839506172839 0.6296296296296295 0.6419753086419753 0.654320987654321 0.6666666666666666 0.6790123456790123 0.691358024691358 0.7037037037037037 0.7160493827160493 0.728395061728395 0.7407407407407407 0.7530864197530864 0.7654320987654321 0.7777777777777777 0.7901234567901234 0.8024691358024691 0.8148148148148148 0.8271604938271604 0.8395061728395061 0.8518518518518519 0.8641975308641975 0.8765432098765431 0.8888888888888888 0.9012345679012346 0.9135802469135802 0.9259259259259258 0.9382716049382716 0.9506172839506173 0.9629629629629629 0.9753086419753085 0.9876543209876543 1.0 0.0 0.012345679012345678 0.024691358024691357 0.037037037037037035 0.04938271604938271 0.06172839506172839 0.07407407407407407 0.08641975308641975 0.09876543209876543 0.1111111111111111 0.12345679012345678 0.13580246913580246 0.14814814814814814 0.16049382716049382 0.1728395061728395 0.18518518518518517 0.19753086419753085 0.20987654320987653 0.2222222222222222 0.2345679012345679 0.24691358024691357 0.25925925925925924 0.2716049382716049 0.2839506172839506 0.2962962962962963 0.30864197530864196 0.32098765432098764 0.3333333333333333 0.345679012345679 0.35802469135802467 0.37037037037037035 0.38271604938271603 0.3950617283950617 0.4074074074074074 0.41975308641975306 0.43209876543209874 0.4444444444444444 0.4567901234567901 0.4691358024691358 0.48148148148148145 0.49382716049382713 0.5061728395061729 0.5185185185185185 0.5308641975308641 0.5432098765432098 0.5555555555555556 0.5679012345679012 0.5802469135802468 0.5925925925925926 0.6049382716049383 0.6172839506172839 0.6296296296296295 0.6419753086419753 0.654320987654321 0.6666666666666666 0.6790123456790123 0.691358024691358 0.7037037037037037 0.7160493827160493 0.728395061728395 0.7407407407407407 0.7530864197530864 0.7654320987654321 0.7777777777777777 0.7901234567901234 0.8024691358024691 0.8148148148148148 0.8271604938271604 0.8395061728395061 0.8518518518518519 0.8641975308641975 0.8765432098765431 0.8888888888888888 0.9012345679012346 0.9135802469135802 0.9259259259259258 0.9382716049382716 0.9506172839506173 0.9629629629629629 0.9753086419753085 0.9876543209876543 1.0 0.0 0.012345679012345678 0.024691358024691357 0.037037037037037035 0.04938271604938271 0.06172839506172839 0.07407407407407407 0.08641975308641975 0.09876543209876543 0.1111111111111111 0.12345679012345678 0.13580246913580246 0.14814814814814814 0.16049382716049382 0.1728395061728395 0.18518518518518517 0.19753086419753085 0.20987654320987653 0.2222222222222222 0.2345679012345679 0.24691358024691357 0.25925925925925924 0.2716049382716049 0.2839506172839506 0.2962962962962963 0.30864197530864196 0.32098765432098764 0.3333333333333333 0.345679012345679 0.35802469135802467 0.37037037037037035 0.38271604938271603 0.3950617283950617 0.4074074074074074 0.41975308641975306 0.43209876543209874 0.4444444444444444 0.4567901234567901 0.4691358024691358 0.48148148148148145 0.49382716049382713 0.5061728395061729 0.5185185185185185 0.5308641975308641 0.5432098765432098 0.5555555555555556 0.5679012345679012 0.5802469135802468 0.5925925925925926 0.6049382716049383 0.6172839506172839 0.6296296296296295 0.6419753086419753 0.654320987654321 0.6666666666666666 0.6790123456790123 0.691358024691358 0.7037037037037037 0.7160493827160493 0.728395061728395 0.7407407407407407 0.7530864197530864 0.7654320987654321 0.7777777777777777 0.7901234567901234 0.8024691358024691 0.8148148148148148 0.8271604938271604 0.8395061728395061 0.8518518518518519 0.8641975308641975 0.8765432098765431 0.8888888888888888 0.9012345679012346 0.9135802469135802 0.9259259259259258 0.9382716049382716 0.9506172839506173 0.9629629629629629 0.9753086419753085 0.9876543209876543 1.0 0.0 0.012345679012345678 0.024691358024691357 0.037037037037037035 0.04938271604938271 0.06172839506172839 0.07407407407407407 0.08641975308641975 0.09876543209876543 0.1111111111111111 0.12345679012345678 0.13580246913580246 0.14814814814814814 0.16049382716049382 0.1728395061728395 0.18518518518518517 0.19753086419753085 0.20987654320987653 0.2222222222222222 0.2345679012345679 0.24691358024691357 0.25925925925925924 0.2716049382716049 0.2839506172839506 0.2962962962962963 0.30864197530864196 0.32098765432098764 0.3333333333333333 0.345679012345679 0.35802469135802467 0.37037037037037035 0.38271604938271603 0.3950617283950617 0.4074074074074074 0.41975308641975306 0.43209876543209874 0.4444444444444444 0.4567901234567901 0.4691358024691358 0.48148148148148145 0.49382716049382713 0.5061728395061729 0.5185185185185185 0.5308641975308641 0.5432098765432098 0.5555555555555556 0.5679012345679012 0.5802469135802468 0.5925925925925926 0.6049382716049383 0.6172839506172839 0.6296296296296295 0.6419753086419753 0.654320987654321 0.6666666666666666 0.6790123456790123 0.691358024691358 0.7037037037037037 0.7160493827160493 0.728395061728395 0.7407407407407407 0.7530864197530864 0.7654320987654321 0.7777777777777777 0.7901234567901234 0.8024691358024691 0.8148148148148148 0.8271604938271604 0.8395061728395061 0.8518518518518519 0.8641975308641975 0.8765432098765431 0.8888888888888888 0.9012345679012346 0.9135802469135802 0.9259259259259258 0.9382716049382716 0.9506172839506173 0.9629629629629629 0.9753086419753085 0.9876543209876543 1.0 0.0 0.012345679012345678 0.024691358024691357 0.037037037037037035 0.04938271604938271 0.06172839506172839 0.07407407407407407 0.08641975308641975 0.09876543209876543 0.1111111111111111 0.12345679012345678 0.13580246913580246 0.14814814814814814 0.16049382716049382 0.1728395061728395 0.18518518518518517 0.19753086419753085 0.20987654320987653 0.2222222222222222 0.2345679012345679 0.24691358024691357 0.25925925925925924 0.2716049382716049 0.2839506172839506 0.2962962962962963 0.30864197530864196 0.32098765432098764 0.3333333333333333 0.345679012345679 0.35802469135802467 0.37037037037037035 0.38271604938271603 0.3950617283950617 0.4074074074074074 0.41975308641975306 0.43209876543209874 0.4444444444444444 0.4567901234567901 0.4691358024691358 0.48148148148148145 0.49382716049382713 0.5061728395061729 0.5185185185185185 0.5308641975308641 0.5432098765432098 0.5555555555555556 0.5679012345679012 0.5802469135802468 0.5925925925925926 0.6049382716049383 0.6172839506172839 0.6296296296296295 0.6419753086419753 0.654320987654321 0.6666666666666666 0.6790123456790123 0.691358024691358 0.7037037037037037 0.7160493827160493 0.728395061728395 0.7407407407407407 0.7530864197530864 0.7654320987654321 0.7777777777777777 0.7901234567901234 0.8024691358024691 0.8148148148148148 0.8271604938271604 0.8395061728395061 0.8518518518518519 0.8641975308641975 0.8765432098765431 0.8888888888888888 0.9012345679012346 0.9135802469135802 0.9259259259259258 0.9382716049382716 0.9506172839506173 0.9629629629629629 0.9753086419753085 0.9876543209876543 1.0 0.0 0.012345679012345678 0.024691358024691357 0.037037037037037035 0.04938271604938271 0.06172839506172839 0.07407407407407407 0.08641975308641975 0.09876543209876543 0.1111111111111111 0.12345679012345678 0.13580246913580246 0.14814814814814814 0.16049382716049382 0.1728395061728395 0.18518518518518517 0.19753086419753085 0.20987654320987653 0.2222222222222222 0.2345679012345679 0.24691358024691357 0.25925925925925924 0.2716049382716049 0.2839506172839506 0.2962962962962963 0.30864197530864196 0.32098765432098764 0.3333333333333333 0.345679012345679 0.35802469135802467 0.37037037037037035 0.38271604938271603 0.3950617283950617 0.4074074074074074 0.41975308641975306 0.43209876543209874 0.4444444444444444 0.4567901234567901 0.4691358024691358 0.48148148148148145 0.49382716049382713 0.5061728395061729 0.5185185185185185 0.5308641975308641 0.5432098765432098 0.5555555555555556 0.5679012345679012 0.5802469135802468 0.5925925925925926 0.6049382716049383 0.6172839506172839 0.6296296296296295 0.6419753086419753 0.654320987654321 0.6666666666666666 0.6790123456790123 0.691358024691358 0.7037037037037037 0.7160493827160493 0.728395061728395 0.7407407407407407 0.7530864197530864 0.7654320987654321 0.7777777777777777 0.7901234567901234 0.8024691358024691 0.8148148148148148 0.8271604938271604 0.8395061728395061 0.8518518518518519 0.8641975308641975 0.8765432098765431 0.8888888888888888 0.9012345679012346 0.9135802469135802 0.9259259259259258 0.9382716049382716 0.9506172839506173 0.9629629629629629 0.9753086419753085 0.9876543209876543 1.0 0.0 0.012345679012345678 0.024691358024691357 0.037037037037037035 0.04938271604938271 0.06172839506172839 0.07407407407407407 0.08641975308641975 0.09876543209876543 0.1111111111111111 0.12345679012345678 0.13580246913580246 0.14814814814814814 0.16049382716049382 0.1728395061728395 0.18518518518518517 0.19753086419753085 