VARIABLES="x","y","u","v","psi","w" 
ZONE NODES=28560, ELEMENTS=28173, DATAPACKING=BLOCK, VARLOCATION=([1,2]=nodal,[3,4,5,6]=CELLCENTERED), ZONETYPE=FEQUADRILATERAL
0.0 
0.08795707067492575 0.1750262456376852 0.2612234252717398 0.3465643507186895 0.43106460675284897 0.5147396246273201 0.5976046848919987 0.6796749201840848 0.7609653179915687 0.8414907233902147 0.9212658417545381 1.000305241443261 1.0786233564597678 1.156234489087998 1.233152812504306 1.3093923733657338 1.3849670943751793 1.4598907768239346 1.5341771031120444 1.6078396392469507 1.6808918373209032 1.7533470379675333 1.8252184727981056 1.8965192668178354 1.9672624408227568 2.0374609137775472 2.1071275051747627 2.1762749373759043 2.244915837934752 2.3130627419033734 2.380728094121258 2.447924251487956 2.5146634852196765 2.5809579830902285 2.6468198516567223 2.7122611184704453 2.7772937342733086 2.841929575180263 2.906180444848089 2.9700580766309583 3.03357413572315 3.0967402212893242 3.1595678685827364 3.2220685510517812 3.2842536824352466 3.3461346188466683 3.4077226608481554 3.4690290555140786 3.530064998484984 3.590841636012115 3.651370066992921 3.7116613449979097 3.771726480289228 3.8315764418313334 3.89122215929412 3.9506745250488704 4.009944396157401 4.069042596354752 4.127979918025795 4.186767124176113 4.24541495039752 4.303934106828573 4.362335280110425 4.420629135338412 4.478826318009672 4.536937455967213 4.594973161340748 4.652944032484651 4.710860655913412 4.768733608234921 4.8265734580819455 4.88439076804215 4.942196096587015 5.0 5.071691269582456 5.1433800951421285 5.21506871409395 5.286759363846414 5.358454281871388 5.4301557057739585 5.501865873362256 5.573587022717306 5.645321392262874 5.717071220835329 5.7888387477535215 5.860626212888661 5.932435856734239 6.00426992047594 6.076130646061602 6.148020276271174 6.219941054786728 6.2918952262624765 6.363885036394826 6.4359127319924685 6.507980561046509 6.580090772800619 6.652245617821239 6.724447348067817 6.796698216963094 6.869000479463431 6.941356392129191 7.013768213195162 7.086238202641038 7.158768622261955 7.23136173573908 7.304019808710259 7.376745108840734 7.449539905893909 7.522406471802194 7.595347080737916 7.668364009184286 7.741459536006457 7.814635942522642 7.887895512575325 7.961240532602519 8.034673291709147 8.108196081738479 8.181811197343652 8.255520936059295 8.329327598373233 8.403233487798289 8.477240910944168 8.551352177589457 8.625569600753705 8.699895496769615 8.774332185355341 8.848881989686882 8.923547236470592 8.99833025601579 9.073233382307492 9.14825895307927 9.22340930988619 9.298686798177897 9.374093767371829 9.449632570926537 9.52530556641513 9.601115115598855 9.677063584500825 9.753153343479845 9.829386767304388 9.905766235226734 9.982294131057202 10.058972843238568 10.135804764920593 10.21279229403473 10.289937833368942 10.367243790642718 10.444712578582202 10.522346614995485 10.600148322848106 10.678120130338616 10.756264470974415 10.834583783647664 10.913080512711424 10.991757108055936 11.070616025185078 11.149659725293025 11.228890675341027 11.30831134813444 11.387924222399867 11.46773178286255 11.547736520323896 11.627940931739234 11.708347520295728 11.788958795490515 11.869777273209014 11.950805475803463 12.032045932171627 12.113501177835733 12.1951737550216 12.277066212737985 12.359181106856136 12.44152100018957 12.524088462574042 12.606886070947757 12.689916409431799 12.77318206941079 12.856685649613745 12.940429756195195 13.024417002816529 13.10865001072755 13.193131408848298 13.277863833851097 13.362849930242838 13.448092350447519 13.533593754889038 13.619356812074205 13.705384198676041 13.791678599617313 13.878242708154328 13.965079225960995 14.052190863213136 14.139580338673088 14.227250379774532 14.315203722707638 14.403443112504446 14.49197130312455 14.580791057541042 14.669905147826745 14.75931635524074 14.849027470315155 14.939041292942266 15.029360632461877 15.11998830774901 15.210927147301863 15.302179989330114 15.39374968184348 15.485639082740603 15.57785105989827 15.670388491260896 15.763254264930355 15.8564512792561 15.949982442925656 16.04385067505537 16.13805890528153 16.232610073851795 16.327507131716956 16.422753040623057 16.518350773203792 16.614303313073336 16.710613654919403 16.807284804596755 16.904319779220994 17.001721607262738 17.09949332864214 17.19763799482374 17.29615866891173 17.395058425745546 17.494340351995838 17.59400754626079 17.694063119162827 17.794510193445735 17.895351904072065 17.996591398321023 18.09823183588668 18.200276388976576 18.30272824241073 18.405590593721065 18.50886665325116 18.61255964425647 18.716672803004933 18.821209378877946 18.92617263447179 19.03156584569949 19.137392301892994 19.243655305905882 19.350358174216424 19.4575042370311 19.565096838388534 19.673139336263866 19.781635102673526 19.890587523780514 20.000000000000068 0.0 0.08795707067492575 0.1750262456376852 0.2612234252717398 0.3465643507186895 0.43106460675284897 0.5147396246273201 0.5976046848919987 0.6796749201840848 0.7609653179915687 0.8414907233902147 0.9212658417545381 1.000305241443261 1.0786233564597678 1.156234489087998 1.233152812504306 1.3093923733657338 1.3849670943751793 1.4598907768239346 1.5341771031120444 1.6078396392469507 1.6808918373209032 1.7533470379675333 1.8252184727981056 1.8965192668178354 1.9672624408227568 2.0374609137775472 2.1071275051747627 2.1762749373759043 2.244915837934752 2.3130627419033734 2.380728094121258 2.447924251487956 2.5146634852196765 2.5809579830902285 2.6468198516567223 2.7122611184704453 2.7772937342733086 2.841929575180263 2.906180444848089 2.9700580766309583 3.03357413572315 3.0967402212893242 3.1595678685827364 3.2220685510517812 3.2842536824352466 3.3461346188466683 3.4077226608481554 3.4690290555140786 3.530064998484984 3.590841636012115 3.651370066992921 3.7116613449979097 3.771726480289228 3.8315764418313334 3.89122215929412 3.9506745250488704 4.009944396157401 4.069042596354752 4.127979918025795 4.186767124176113 4.24541495039752 4.303934106828573 4.362335280110425 4.420629135338412 4.478826318009672 4.536937455967213 4.594973161340748 4.652944032484651 4.710860655913412 4.768733608234921 4.8265734580819455 4.88439076804215 4.942196096587015 5.0 5.071691269582456 5.1433800951421285 5.21506871409395 5.286759363846414 5.358454281871388 5.4301557057739585 5.501865873362256 5.573587022717306 5.645321392262874 5.717071220835329 5.7888387477535215 5.860626212888661 5.932435856734239 6.00426992047594 6.076130646061602 6.148020276271174 6.219941054786728 6.2918952262624765 6.363885036394826 6.4359127319924685 6.507980561046509 6.580090772800619 6.652245617821239 6.724447348067817 6.796698216963094 6.869000479463431 6.941356392129191 7.013768213195162 7.086238202641038 7.158768622261955 7.23136173573908 7.304019808710259 7.376745108840734 7.449539905893909 7.522406471802194 7.595347080737916 7.668364009184286 7.741459536006457 7.814635942522642 7.887895512575325 7.961240532602519 8.034673291709147 8.108196081738479 8.181811197343652 8.255520936059295 8.329327598373233 8.403233487798289 8.477240910944168 8.551352177589457 8.625569600753705 8.699895496769615 8.774332185355341 8.848881989686882 8.923547236470592 8.99833025601579 9.073233382307492 9.14825895307927 9.22340930988619 9.298686798177897 9.374093767371829 9.449632570926537 9.52530556641513 9.601115115598855 9.677063584500825 9.753153343479845 9.829386767304388 9.905766235226734 9.982294131057202 10.058972843238568 10.135804764920593 10.21279229403473 10.289937833368942 10.367243790642718 10.444712578582202 10.522346614995485 10.600148322848106 10.678120130338616 10.756264470974415 10.834583783647664 10.913080512711424 10.991757108055936 11.070616025185078 11.149659725293025 11.228890675341027 11.30831134813444 11.387924222399867 11.46773178286255 11.547736520323896 11.627940931739234 11.708347520295728 11.788958795490515 11.869777273209014 11.950805475803463 12.032045932171627 12.113501177835733 12.1951737550216 12.277066212737985 12.359181106856136 12.44152100018957 12.524088462574042 12.606886070947757 12.689916409431799 12.77318206941079 12.856685649613745 12.940429756195195 13.024417002816529 13.10865001072755 13.193131408848298 13.277863833851097 13.362849930242838 13.448092350447519 13.533593754889038 13.619356812074205 13.705384198676041 13.791678599617313 13.878242708154328 13.965079225960995 14.052190863213136 14.139580338673088 14.227250379774532 14.315203722707638 14.403443112504446 14.49197130312455 14.580791057541042 14.669905147826745 14.75931635524074 14.849027470315155 14.939041292942266 15.029360632461877 15.11998830774901 15.210927147301863 15.302179989330114 15.39374968184348 15.485639082740603 15.57785105989827 15.670388491260896 15.763254264930355 15.8564512792561 15.949982442925656 16.04385067505537 16.13805890528153 16.232610073851795 16.327507131716956 16.422753040623057 16.518350773203792 16.614303313073336 16.710613654919403 16.807284804596755 16.904319779220994 17.001721607262738 17.09949332864214 17.19763799482374 17.29615866891173 17.395058425745546 17.494340351995838 17.59400754626079 17.694063119162827 17.794510193445735 17.895351904072065 17.996591398321023 18.09823183588668 18.200276388976576 18.30272824241073 18.405590593721065 18.50886665325116 18.61255964425647 18.716672803004933 18.821209378877946 18.92617263447179 19.03156584569949 19.137392301892994 19.243655305905882 19.350358174216424 19.4575042370311 19.565096838388534 19.673139336263866 19.781635102673526 19.890587523780514 20.000000000000068 0.0 0.08795707067492575 0.1750262456376852 0.2612234252717398 0.3465643507186895 0.43106460675284897 0.5147396246273201 0.5976046848919987 0.6796749201840848 0.7609653179915687 0.8414907233902147 0.9212658417545381 1.000305241443261 1.0786233564597678 1.156234489087998 1.233152812504306 1.3093923733657338 1.3849670943751793 1.4598907768239346 1.5341771031120444 1.6078396392469507 1.6808918373209032 1.7533470379675333 1.8252184727981056 1.8965192668178354 1.9672624408227568 2.0374609137775472 2.1071275051747627 2.1762749373759043 2.244915837934752 2.3130627419033734 2.380728094121258 2.447924251487956 2.5146634852196765 2.5809579830902285 2.6468198516567223 2.7122611184704453 2.7772937342733086 2.841929575180263 2.906180444848089 2.9700580766309583 3.03357413572315 3.0967402212893242 3.1595678685827364 3.2220685510517812 3.2842536824352466 3.3461346188466683 3.4077226608481554 3.4690290555140786 3.530064998484984 3.590841636012115 3.651370066992921 3.7116613449979097 3.771726480289228 3.8315764418313334 3.89122215929412 3.9506745250488704 4.009944396157401 4.069042596354752 4.127979918025795 4.186767124176113 4.24541495039752 4.303934106828573 4.362335280110425 4.420629135338412 4.478826318009672 4.536937455967213 4.594973161340748 4.652944032484651 4.710860655913412 4.768733608234921 4.8265734580819455 4.88439076804215 4.942196096587015 5.0 5.071691269582456 5.1433800951421285 5.21506871409395 5.286759363846414 5.358454281871388 5.4301557057739585 5.501865873362256 5.573587022717306 5.645321392262874 5.717071220835329 5.7888387477535215 5.860626212888661 5.932435856734239 6.00426992047594 6.076130646061602 6.148020276271174 6.219941054786728 6.2918952262624765 6.363885036394826 6.4359127319924685 6.507980561046509 6.580090772800619 6.652245617821239 6.724447348067817 6.796698216963094 6.869000479463431 6.941356392129191 7.013768213195162 7.086238202641038 7.158768622261955 7.23136173573908 7.304019808710259 7.376745108840734 7.449539905893909 7.522406471802194 7.595347080737916 7.668364009184286 7.741459536006457 7.814635942522642 7.887895512575325 7.961240532602519 8.034673291709147 8.108196081738479 8.181811197343652 8.255520936059295 8.329327598373233 8.403233487798289 8.477240910944168 8.551352177589457 8.625569600753705 8.699895496769615 8.774332185355341 8.848881989686882 8.923547236470592 8.99833025601579 9.073233382307492 9.14825895307927 9.22340930988619 9.298686798177897 9.374093767371829 9.449632570926537 9.52530556641513 9.601115115598855 9.677063584500825 9.753153343479845 9.829386767304388 9.905766235226734 9.982294131057202 10.058972843238568 10.135804764920593 10.21279229403473 10.289937833368942 10.367243790642718 10.444712578582202 10.522346614995485 10.600148322848106 10.678120130338616 10.756264470974415 10.834583783647664 10.913080512711424 10.991757108055936 11.070616025185078 11.149659725293025 11.228890675341027 11.30831134813444 11.387924222399867 11.46773178286255 11.547736520323896 11.627940931739234 11.708347520295728 11.788958795490515 11.869777273209014 11.950805475803463 12.032045932171627 12.113501177835733 12.1951737550216 12.277066212737985 12.359181106856136 12.44152100018957 12.524088462574042 12.606886070947757 12.689916409431799 12.77318206941079 12.856685649613745 12.940429756195195 13.024417002816529 13.10865001072755 13.193131408848298 13.277863833851097 13.362849930242838 13.448092350447519 13.533593754889038 13.619356812074205 13.705384198676041 13.791678599617313 13.878242708154328 13.965079225960995 14.052190863213136 14.139580338673088 14.227250379774532 14.315203722707638 14.403443112504446 14.49197130312455 14.580791057541042 14.669905147826745 14.75931635524074 14.849027470315155 14.939041292942266 15.029360632461877 15.11998830774901 15.210927147301863 15.302179989330114 15.39374968184348 15.485639082740603 15.57785105989827 15.670388491260896 15.763254264930355 15.8564512792561 15.949982442925656 16.04385067505537 16.13805890528153 16.232610073851795 16.327507131716956 16.422753040623057 16.518350773203792 16.614303313073336 16.710613654919403 16.807284804596755 16.904319779220994 17.001721607262738 17.09949332864214 17.19763799482374 17.29615866891173 17.395058425745546 17.494340351995838 17.59400754626079 17.694063119162827 17.794510193445735 17.895351904072065 17.996591398321023 18.09823183588668 18.200276388976576 18.30272824241073 18.405590593721065 18.50886665325116 18.61255964425647 18.716672803004933 18.821209378877946 18.92617263447179 19.03156584569949 19.137392301892994 19.243655305905882 19.350358174216424 19.4575042370311 19.565096838388534 19.673139336263866 19.781635102673526 19.890587523780514 20.000000000000068 0.0 0.08795707067492575 0.1750262456376852 0.2612234252717398 0.3465643507186895 0.43106460675284897 0.5147396246273201 0.5976046848919987 0.6796749201840848 0.7609653179915687 0.8414907233902147 0.9212658417545381 1.000305241443261 1.0786233564597678 1.156234489087998 1.233152812504306 1.3093923733657338 1.3849670943751793 1.4598907768239346 1.5341771031120444 1.6078396392469507 1.6808918373209032 1.7533470379675333 1.8252184727981056 1.8965192668178354 1.9672624408227568 2.0374609137775472 2.1071275051747627 2.1762749373759043 2.244915837934752 2.3130627419033734 2.380728094121258 2.447924251487956 2.5146634852196765 2.5809579830902285 2.6468198516567223 2.7122611184704453 2.7772937342733086 2.841929575180263 2.906180444848089 2.9700580766309583 3.03357413572315 3.0967402212893242 3.1595678685827364 3.2220685510517812 3.2842536824352466 3.3461346188466683 3.4077226608481554 3.4690290555140786 3.530064998484984 3.590841636012115 3.651370066992921 3.7116613449979097 3.771726480289228 3.8315764418313334 3.89122215929412 3.9506745250488704 4.009944396157401 4.069042596354752 4.127979918025795 4.186767124176113 4.24541495039752 4.303934106828573 4.362335280110425 4.420629135338412 4.478826318009672 4.536937455967213 4.594973161340748 4.652944032484651 4.710860655913412 4.768733608234921 4.8265734580819455 4.88439076804215 4.942196096587015 5.0 5.071691269582456 5.1433800951421285 5.21506871409395 5.286759363846414 5.358454281871388 5.4301557057739585 5.501865873362256 5.573587022717306 5.645321392262874 5.717071220835329 5.7888387477535215 5.860626212888661 5.932435856734239 6.00426992047594 6.076130646061602 6.148020276271174 6.219941054786728 6.2918952262624765 6.363885036394826 6.4359127319924685 6.507980561046509 6.580090772800619 6.652245617821239 6.724447348067817 6.796698216963094 6.869000479463431 6.941356392129191 7.013768213195162 7.086238202641038 7.158768622261955 7.23136173573908 7.304019808710259 7.376745108840734 7.449539905893909 7.522406471802194 7.595347080737916 7.668364009184286 7.741459536006457 7.814635942522642 7.887895512575325 7.961240532602519 8.034673291709147 8.108196081738479 8.181811197343652 8.255520936059295 8.329327598373233 8.403233487798289 8.477240910944168 8.551352177589457 8.625569600753705 8.699895496769615 8.774332185355341 8.848881989686882 8.923547236470592 8.99833025601579 9.073233382307492 9.14825895307927 9.22340930988619 9.298686798177897 9.374093767371829 9.449632570926537 9.52530556641513 9.601115115598855 9.677063584500825 9.753153343479845 9.829386767304388 9.905766235226734 9.982294131057202 10.058972843238568 10.135804764920593 10.21279229403473 10.289937833368942 10.367243790642718 10.444712578582202 10.522346614995485 10.600148322848106 10.678120130338616 10.756264470974415 10.834583783647664 10.913080512711424 10.991757108055936 11.070616025185078 11.149659725293025 11.228890675341027 11.30831134813444 11.387924222399867 11.46773178286255 11.547736520323896 11.627940931739234 11.708347520295728 11.788958795490515 11.869777273209014 11.950805475803463 12.032045932171627 12.113501177835733 12.1951737550216 12.277066212737985 12.359181106856136 12.44152100018957 12.524088462574042 12.606886070947757 12.689916409431799 12.77318206941079 12.856685649613745 12.940429756195195 13.024417002816529 13.10865001072755 13.193131408848298 13.277863833851097 13.362849930242838 13.448092350447519 13.533593754889038 13.619356812074205 13.705384198676041 13.791678599617313 13.878242708154328 13.965079225960995 14.052190863213136 14.139580338673088 14.227250379774532 14.315203722707638 14.403443112504446 14.49197130312455 14.580791057541042 14.669905147826745 14.75931635524074 14.849027470315155 14.939041292942266 15.029360632461877 15.11998830774901 15.210927147301863 15.302179989330114 15.39374968184348 15.485639082740603 15.57785105989827 15.670388491260896 15.763254264930355 15.8564512792561 15.949982442925656 16.04385067505537 16.13805890528153 16.232610073851795 16.327507131716956 16.422753040623057 16.518350773203792 16.614303313073336 16.710613654919403 16.807284804596755 16.904319779220994 17.001721607262738 17.09949332864214 17.19763799482374 17.29615866891173 17.395058425745546 17.494340351995838 17.59400754626079 17.694063119162827 17.794510193445735 17.895351904072065 17.996591398321023 18.09823183588668 18.200276388976576 18.30272824241073 18.405590593721065 