VARIABLES="x","y","u","v","psi","w","Mx","My","alpha","Theta","MxH" 
ZONE NODES=12640, ELEMENTS=12383, DATAPACKING=BLOCK, VARLOCATION=([1,2]=nodal,[3,4,5,6,7,8,9,10,11]=CELLCENTERED), ZONETYPE=FEQUADRILATERAL
0.0 
0.20607710705159032 0.40424987169036974 0.5948484901324216 0.7781905385225443 0.9545815020808517 1.1243152841033979 1.2876746956649874 1.4449319268400505 1.5963490002267964 1.742178207530253 1.8826625299316753 2.0180360429447166 2.148524306432937 2.2743447404385133 2.3957069874483383 2.5128132617011336 2.6258586861175854 2.7350316174148985 2.8405139599474767 2.942481468796652 3.041104042614471 3.1365460067094757 3.228966386846162 3.3185191742143125 3.405353582009705 3.489614294053708 3.5714417058660137 3.650972158592192 3.728338166175825 3.8036686361537457 3.8770890844422663 3.948721844472276 4.018686271021673 4.087098939084748 4.154073838109886 4.219722561929217 4.284154494696687 4.347476993144354 4.409795565460577 4.471214047088173 4.531834773735416 4.591758751888194 4.651085827107395 4.709914850391963 4.768343842884809 4.826470159196015 4.8843906496154545 4.942201821485115 5.0 5.07141154867556 5.142800898268791 5.214188214313206 5.2855936617679005 5.3570374107135965 5.428539642050133 5.500120553197025 5.5718003637986735 5.643599321435864 5.7155377073451525 5.787635842147757 5.859914091589579 5.932392872293965 6.005092657528845 6.078033982989865 6.1512374526011655 6.224723744335417 6.298513616054786 6.372627911374457 6.4470875655503885 6.521913611392941 6.597127185208078 6.67274953276778 6.7488020153114086 6.825306115579659 6.9022834438828475 6.979755744205235 7.057744900347104 7.136272942106329 7.215362051501195 7.295034569036211 7.37531300001268 7.456220020885843 7.5377784856703425 7.620011432395864 7.702942089614745 7.786593882963404 7.870990441779437 7.956155605776265 8.042113431777192 8.1288882005108 8.216504423469592 8.304986849833814 8.394360473462417 8.484650539953137 8.575882553773695 8.668082285466095 8.761275778926105 8.855489358759938 8.95074963772023 9.047083524223424 9.144518229950645 9.243081277534262 9.342800508332278 9.443704090292751 9.545820525910447 9.649178660278046 9.753807689234069 9.859737167609904 9.966997017578237 10.075617537105245 10.185629408508948 10.297063707126107 10.409951910090163 10.524325905222671 10.640218000040722 10.757660930882938 10.876687872156587 10.997332445708452 11.119628730322063 11.243611271344033 11.369315090442178 11.496775695498147 11.626029090637465 11.757111786399676 11.89006081005159 12.024913716046473 12.16170859663212 12.300484092610915 12.441279404254765 12.584134302378109 12.729089139572094 12.876184861603058 13.0254630189786 13.176965778684457 13.33073593609551 13.486816927064318 13.645252840190548 13.80608842927479 13.969369125960293 14.135141052566148 14.30345103511558 14.47434661656301 14.647876070223651 14.824088413409378 15.003033421274786 15.184761640877309 15.369324405455362 15.55677384892859 15.747162920624252 15.940545400233978 16.13697591300504 16.336509945170487 16.539203859622486 16.745114911833298 16.95430126602838 17.166822011616183 17.382737179879264 17.602107760931524 17.8249957209462 18.05146401965964 18.28157662815568 18.515398546935735 18.752995824279648 18.994435574902532 19.23978599891281 19.489116401076917 19.74249721039596 19.999999999999975 0.0 0.20607710705159032 0.40424987169036974 0.5948484901324216 0.7781905385225443 0.9545815020808517 1.1243152841033979 1.2876746956649874 1.4449319268400505 1.5963490002267964 1.742178207530253 1.8826625299316753 2.0180360429447166 2.148524306432937 2.2743447404385133 2.3957069874483383 2.5128132617011336 2.6258586861175854 2.7350316174148985 2.8405139599474767 2.942481468796652 3.041104042614471 3.1365460067094757 3.228966386846162 3.3185191742143125 3.405353582009705 3.489614294053708 3.5714417058660137 3.650972158592192 3.728338166175825 3.8036686361537457 3.8770890844422663 3.948721844472276 4.018686271021673 4.087098939084748 4.154073838109886 4.219722561929217 4.284154494696687 4.347476993144354 4.409795565460577 4.471214047088173 4.531834773735416 4.591758751888194 4.651085827107395 4.709914850391963 4.768343842884809 4.826470159196015 4.8843906496154545 4.942201821485115 5.0 5.07141154867556 5.142800898268791 5.214188214313206 5.2855936617679005 5.3570374107135965 5.428539642050133 5.500120553197025 5.5718003637986735 5.643599321435864 5.7155377073451525 5.787635842147757 5.859914091589579 5.932392872293965 6.005092657528845 6.078033982989865 6.1512374526011655 6.224723744335417 6.298513616054786 6.372627911374457 6.4470875655503885 6.521913611392941 6.597127185208078 6.67274953276778 6.7488020153114086 6.825306115579659 6.9022834438828475 6.979755744205235 7.057744900347104 7.136272942106329 7.215362051501195 7.295034569036211 7.37531300001268 7.456220020885843 7.5377784856703425 7.620011432395864 7.702942089614745 7.786593882963404 7.870990441779437 7.956155605776265 8.042113431777192 8.1288882005108 8.216504423469592 8.304986849833814 8.394360473462417 8.484650539953137 8.575882553773695 8.668082285466095 8.761275778926105 8.855489358759938 8.95074963772023 9.047083524223424 9.144518229950645 9.243081277534262 9.342800508332278 9.443704090292751 9.545820525910447 9.649178660278046 9.753807689234069 9.859737167609904 9.966997017578237 10.075617537105245 10.185629408508948 10.297063707126107 10.409951910090163 10.524325905222671 10.640218000040722 10.757660930882938 10.876687872156587 10.997332445708452 11.119628730322063 11.243611271344033 11.369315090442178 11.496775695498147 11.626029090637465 11.757111786399676 11.89006081005159 12.024913716046473 12.16170859663212 12.300484092610915 12.441279404254765 12.584134302378109 12.729089139572094 12.876184861603058 13.0254630189786 13.176965778684457 13.33073593609551 13.486816927064318 13.645252840190548 13.80608842927479 13.969369125960293 14.135141052566148 14.30345103511558 14.47434661656301 14.647876070223651 14.824088413409378 15.003033421274786 15.184761640877309 15.369324405455362 15.55677384892859 15.747162920624252 15.940545400233978 16.13697591300504 16.336509945170487 16.539203859622486 16.745114911833298 16.95430126602838 17.166822011616183 17.382737179879264 17.602107760931524 17.8249957209462 18.05146401965964 18.28157662815568 18.515398546935735 18.752995824279648 18.994435574902532 19.23978599891281 19.489116401076917 19.74249721039596 19.999999999999975 0.0 0.20607710705159032 0.40424987169036974 0.5948484901324216 0.7781905385225443 0.9545815020808517 1.1243152841033979 1.2876746956649874 1.4449319268400505 1.5963490002267964 1.742178207530253 1.8826625299316753 2.0180360429447166 2.148524306432937 2.2743447404385133 2.3957069874483383 2.5128132617011336 2.6258586861175854 2.7350316174148985 2.8405139599474767 2.942481468796652 3.041104042614471 3.1365460067094757 3.228966386846162 3.3185191742143125 3.405353582009705 3.489614294053708 3.5714417058660137 3.650972158592192 3.728338166175825 3.8036686361537457 3.8770890844422663 3.948721844472276 4.018686271021673 4.087098939084748 4.154073838109886 4.219722561929217 4.284154494696687 4.347476993144354 4.409795565460577 4.471214047088173 4.531834773735416 4.591758751888194 4.651085827107395 4.709914850391963 4.768343842884809 4.826470159196015 4.8843906496154545 4.942201821485115 5.0 5.07141154867556 5.142800898268791 5.214188214313206 5.2855936617679005 5.3570374107135965 5.428539642050133 5.500120553197025 5.5718003637986735 5.643599321435864 5.7155377073451525 5.787635842147757 5.859914091589579 5.932392872293965 6.005092657528845 6.078033982989865 6.1512374526011655 6.224723744335417 6.298513616054786 6.372627911374457 6.4470875655503885 6.521913611392941 6.597127185208078 6.67274953276778 6.7488020153114086 6.825306115579659 6.9022834438828475 6.979755744205235 7.057744900347104 7.136272942106329 7.215362051501195 7.295034569036211 7.37531300001268 7.456220020885843 7.5377784856703425 7.620011432395864 7.702942089614745 7.786593882963404 7.870990441779437 7.956155605776265 8.042113431777192 8.1288882005108 8.216504423469592 8.304986849833814 8.394360473462417 8.484650539953137 8.575882553773695 8.668082285466095 8.761275778926105 8.855489358759938 8.95074963772023 9.047083524223424 9.144518229950645 9.243081277534262 9.342800508332278 9.443704090292751 9.545820525910447 9.649178660278046 9.753807689234069 9.859737167609904 9.966997017578237 10.075617537105245 10.185629408508948 10.297063707126107 10.409951910090163 10.524325905222671 10.640218000040722 10.757660930882938 10.876687872156587 10.997332445708452 11.119628730322063 11.243611271344033 11.369315090442178 11.496775695498147 11.626029090637465 11.757111786399676 11.89006081005159 12.024913716046473 12.16170859663212 12.300484092610915 12.441279404254765 12.584134302378109 12.729089139572094 12.876184861603058 13.0254630189786 13.176965778684457 13.33073593609551 13.486816927064318 13.645252840190548 13.80608842927479 13.969369125960293 14.135141052566148 14.30345103511558 14.47434661656301 14.647876070223651 14.824088413409378 15.003033421274786 15.184761640877309 15.369324405455362 15.55677384892859 15.747162920624252 15.940545400233978 16.13697591300504 16.336509945170487 16.539203859622486 16.745114911833298 16.95430126602838 17.166822011616183 17.382737179879264 17.602107760931524 17.8249957209462 18.05146401965964 18.28157662815568 18.515398546935735 18.752995824279648 18.994435574902532 19.23978599891281 19.489116401076917 19.74249721039596 19.999999999999975 0.0 0.20607710705159032 0.40424987169036974 0.5948484901324216 0.7781905385225443 0.9545815020808517 1.1243152841033979 1.2876746956649874 1.4449319268400505 1.5963490002267964 1.742178207530253 1.8826625299316753 2.0180360429447166 2.148524306432937 2.2743447404385133 2.3957069874483383 2.5128132617011336 2.6258586861175854 2.7350316174148985 2.8405139599474767 2.942481468796652 3.041104042614471 3.1365460067094757 3.228966386846162 3.3185191742143125 3.405353582009705 3.489614294053708 3.5714417058660137 3.650972158592192 3.728338166175825 3.8036686361537457 3.8770890844422663 3.948721844472276 4.018686271021673 4.087098939084748 4.154073838109886 4.219722561929217 4.284154494696687 4.347476993144354 4.409795565460577 4.471214047088173 4.531834773735416 4.591758751888194 4.651085827107395 4.709914850391963 4.768343842884809 4.826470159196015 4.8843906496154545 4.942201821485115 5.0 5.07141154867556 5.142800898268791 5.214188214313206 5.2855936617679005 5.3570374107135965 5.428539642050133 5.500120553197025 5.5718003637986735 5.643599321435864 5.7155377073451525 5.787635842147757 5.859914091589579 5.932392872293965 6.005092657528845 6.078033982989865 6.1512374526011655 6.224723744335417 6.298513616054786 6.372627911374457 6.4470875655503885 6.521913611392941 6.597127185208078 6.67274953276778 6.7488020153114086 6.825306115579659 6.9022834438828475 6.979755744205235 7.057744900347104 7.136272942106329 7.215362051501195 7.295034569036211 7.37531300001268 7.456220020885843 7.5377784856703425 7.620011432395864 7.702942089614745 7.786593882963404 7.870990441779437 7.956155605776265 8.042113431777192 8.1288882005108 8.216504423469592 8.304986849833814 8.394360473462417 8.484650539953137 8.575882553773695 8.668082285466095 8.761275778926105 8.855489358759938 8.95074963772023 9.047083524223424 9.144518229950645 9.243081277534262 9.342800508332278 9.443704090292751 9.545820525910447 9.649178660278046 9.753807689234069 9.859737167609904 9.966997017578237 10.075617537105245 10.185629408508948 10.297063707126107 10.409951910090163 10.524325905222671 10.640218000040722 10.757660930882938 10.876687872156587 10.997332445708452 11.119628730322063 11.243611271344033 11.369315090442178 11.496775695498147 11.626029090637465 11.757111786399676 11.89006081005159 12.024913716046473 12.16170859663212 12.300484092610915 12.441279404254765 12.584134302378109 12.729089139572094 12.876184861603058 13.0254630189786 13.176965778684457 13.33073593609551 13.486816927064318 13.645252840190548 13.80608842927479 13.969369125960293 14.135141052566148 14.30345103511558 14.47434661656301 14.647876070223651 14.824088413409378 15.003033421274786 15.184761640877309 15.369324405455362 15.55677384892859 15.747162920624252 15.940545400233978 16.13697591300504 16.336509945170487 16.539203859622486 16.745114911833298 16.95430126602838 17.166822011616183 17.382737179879264 17.602107760931524 17.8249957209462 18.05146401965964 18.28157662815568 18.515398546935735 18.752995824279648 18.994435574902532 19.23978599891281 19.489116401076917 19.74249721039596 19.999999999999975 0.0 0.20607710705159032 0.40424987169036974 0.5948484901324216 0.7781905385225443 0.9545815020808517 1.1243152841033979 1.2876746956649874 1.4449319268400505 1.5963490002267964 1.742178207530253 1.8826625299316753 2.0180360429447166 2.148524306432937 2.2743447404385133 2.3957069874483383 2.5128132617011336 2.6258586861175854 2.7350316174148985 2.8405139599474767 2.942481468796652 3.041104042614471 3.1365460067094757 3.228966386846162 3.3185191742143125 3.405353582009705 3.489614294053708 3.5714417058660137 3.650972158592192 3.728338166175825 3.8036686361537457 3.8770890844422663 3.948721844472276 4.018686271021673 4.087098939084748 4.154073838109886 4.219722561929217 4.284154494696687 4.347476993144354 4.409795565460577 4.471214047088173 4.531834773735416 4.591758751888194 4.651085827107395 4.709914850391963 4.768343842884809 4.826470159196015 4.8843906496154545 4.942201821485115 5.0 5.07141154867556 5.142800898268791 5.214188214313206 5.2855936617679005 5.3570374107135965 5.428539642050133 5.500120553197025 5.5718003637986735 5.643599321435864 5.7155377073451525 5.787635842147757 5.859914091589579 5.932392872293965 6.005092657528845 6.078033982989865 6.1512374526011655 6.224723744335417 6.298513616054786 6.372627911374457 6.4470875655503885 6.521913611392941 6.597127185208078 6.67274953276778 6.7488020153114086 6.825306115579659 6.9022834438828475 6.979755744205235 7.057744900347104 7.136272942106329 7.215362051501195 7.295034569036211 7.37531300001268 7.456220020885843 7.5377784856703425 7.620011432395864 7.702942089614745 7.786593882963404 7.870990441779437 7.956155605776265 8.042113431777192 8.1288882005108 8.216504423469592 8.304986849833814 8.394360473462417 8.484650539953137 8.575882553773695 8.668082285466095 8.761275778926105 8.855489358759938 8.95074963772023 9.047083524223424 9.144518229950645 9.243081277534262 9.342800508332278 9.443704090292751 9.545820525910447 9.649178660278046 9.753807689234069 9.859737167609904 9.966997017578237 10.075617537105245 10.185629408508948 10.297063707126107 10.409951910090163 10.524325905222671 10.640218000040722 10.757660930882938 10.876687872156587 10.997332445708452 11.119628730322063 11.243611271344033 11.369315090442178 11.496775695498147 11.626029090637465 11.757111786399676 11.89006081005159 12.024913716046473 12.16170859663212 12.300484092610915 12.441279404254765 12.584134302378109 12.729089139572094 12.876184861603058 13.0254630189786 13.176965778684457 13.33073593609551 13.486816927064318 13.645252840190548 13.80608842927479 13.969369125960293 14.135141052566148 14.30345103511558 14.47434661656301 14.647876070223651 14.824088413409378 15.003033421274786 15.184761640877309 15.369324405455362 15.55677384892859 15.747162920624252 15.940545400233978 16.13697591300504 16.336509945170487 16.539203859622486 16.745114911833298 16.95430126602838 17.166822011616183 17.382737179879264 17.602107760931524 17.8249957209462 18.05146401965964 18.28157662815568 18.515398546935735 18.752995824279648 18.994435574902532 19.23978599891281 19.489116401076917 19.74249721039596 19.999999999999975 0.0 0.20607710705159032 0.40424987169036974 0.5948484901324216 0.7781905385225443 0.9545815020808517 1.1243152841033979 1.2876746956649874 1.4449319268400505 1.5963490002267964 1.742178207530253 1.8826625299316753 2.0180360429447166 2.148524306432937 2.2743447404385133 2.3957069874483383 2.5128132617011336 2.6258586861175854 2.7350316174148985 2.8405139599474767 2.942481468796652 3.041104042614471 3.1365460067094757 3.228966386846162 3.3185191742143125 3.405353582009705 3.489614294053708 3.5714417058660137 3.650972158592192 3.728338166175825 3.8036686361537457 3.8770890844422663 3.948721844472276 4.018686271021673 4.087098939084748 4.154073838109886 4.219722561929217 4.284154494696687 4.347476993144354 4.409795565460577 4.471214047088173 4.531834773735416 4.591758751888194 4.651085827107395 4.709914850391963 4.768343842884809 4.826470159196015 4.8843906496154545 4.942201821485115 5.0 5.07141154867556 5.142800898268791 5.214188214313206 5.2855936617679005 5.3570374107135965 5.428539642050133 5.500120553197025 5.5718003637986735 5.643599321435864 5.7155377073451525 5.787635842147757 5.859914091589579 5.932392872293965 6.005092657528845 6.078033982989865 6.1512374526011655 6.224723744335417 6.298513616054786 6.372627911374457 6.4470875655503885 6.521913611392941 6.597127185208078 6.67274953276778 6.7488020153114086 6.825306115579659 6.9022834438828475 6.979755744205235 7.057744900347104 7.136272942106329 7.215362051501195 7.295034569036211 7.37531300001268 7.456220020885843 7.5377784856703425 7.620011432395864 7.702942089614745 7.786593882963404 7.870990441779437 7.956155605776265 8.042113431777192 8.1288882005108 8.216504423469592 8.304986849833814 8.394360473462417 8.484650539953137 8.575882553773695 8.668082285466095 8.761275778926105 8.855489358759938 8.95074963772023 9.047083524223424 9.144518229950645 9.243081277534262 9.342800508332278 9.443704090292751 9.545820525910447 9.649178660278046 9.753807689234069 9.859737167609904 9.966997017578237 10.075617537105245 10.185629408508948 10.297063707126107 10.409951910090163 10.524325905222671 10.640218000040722 10.757660930882938 10.876687872156587 10.997332445708452 11.119628730322063 11.243611271344033 11.369315090442178 11.496775695498147 11.626029090637465 11.757111786399676 11.89006081005159 12.024913716046473 12.16170859663212 12.300484092610915 12.441279404254765 12.584134302378109 12.729089139572094 12.876184861603058 13.0254630189786 13.176965778684457 13.33073593609551 13.486816927064318 13.645252840190548 13.80608842927479 13.969369125960293 14.135141052566148 14.30345103511558 14.47434661656301 14.647876070223651 14.824088413409378 15.003033421274786 15.184761640877309 15.369324405455362 15.55677384892859 15.747162920624252 15.940545400233978 16.13697591300504 16.336509945170487 16.539203859622486 16.745114911833298 16.95430126602838 