VARIABLES="x","y","u","v","psi","w","Hx","Hy","modH","M0","Mx","My","alpha","Theta","MxH" 
ZONE NODES=1681, ELEMENTS=1600, DATAPACKING=BLOCK, VARLOCATION=([1,2]=nodal,[3,4,5,6,7,8,9,10,11,12,13,14,15]=CELLCENTERED), ZONETYPE=FEQUADRILATERAL
0.0 
0.025 0.05 0.07500000000000001 0.1 0.125 0.15000000000000002 0.17500000000000002 0.2 0.225 0.25 0.275 0.30000000000000004 0.325 0.35000000000000003 0.375 0.4 0.42500000000000004 0.45 0.47500000000000003 0.5 0.525 0.55 0.5750000000000001 0.6000000000000001 0.625 0.65 0.675 0.7000000000000001 0.7250000000000001 0.75 0.775 0.8 0.8250000000000001 0.8500000000000001 0.875 0.9 0.925 0.9500000000000001 0.9750000000000001 1.0 0.0 0.025 0.05 0.07500000000000001 0.1 0.125 0.15000000000000002 0.17500000000000002 0.2 0.225 0.25 0.275 0.30000000000000004 0.325 0.35000000000000003 0.375 0.4 0.42500000000000004 0.45 0.47500000000000003 0.5 0.525 0.55 0.5750000000000001 0.6000000000000001 0.625 0.65 0.675 0.7000000000000001 0.7250000000000001 0.75 0.775 0.8 0.8250000000000001 0.8500000000000001 0.875 0.9 0.925 0.9500000000000001 0.9750000000000001 1.0 0.0 0.025 0.05 0.07500000000000001 0.1 0.125 0.15000000000000002 0.17500000000000002 0.2 0.225 0.25 0.275 0.30000000000000004 0.325 0.35000000000000003 0.375 0.4 0.42500000000000004 0.45 0.47500000000000003 0.5 0.525 0.55 0.5750000000000001 0.6000000000000001 0.625 0.65 0.675 0.7000000000000001 0.7250000000000001 0.75 0.775 0.8 0.8250000000000001 0.8500000000000001 0.875 0.9 0.925 0.9500000000000001 0.9750000000000001 1.0 0.0 0.025 0.05 0.07500000000000001 0.1 0.125 0.15000000000000002 0.17500000000000002 0.2 0.225 0.25 0.275 0.30000000000000004 0.325 0.35000000000000003 0.375 0.4 0.42500000000000004 0.45 0.47500000000000003 0.5 0.525 0.55 0.5750000000000001 0.6000000000000001 0.625 0.65 0.675 0.7000000000000001 0.7250000000000001 0.75 0.775 0.8 0.8250000000000001 0.8500000000000001 0.875 0.9 0.925 0.9500000000000001 0.9750000000000001 1.0 0.0 0.025 0.05 0.07500000000000001 0.1 0.125 0.15000000000000002 0.17500000000000002 0.2 0.225 0.25 0.275 0.30000000000000004 0.325 0.35000000000000003 0.375 0.4 0.42500000000000004 0.45 0.47500000000000003 0.5 0.525 0.55 0.5750000000000001 0.6000000000000001 0.625 0.65 0.675 0.7000000000000001 0.7250000000000001 0.75 0.775 0.8 0.8250000000000001 0.8500000000000001 0.875 0.9 0.925 0.9500000000000001 0.9750000000000001 1.0 0.0 0.025 0.05 0.07500000000000001 0.1 0.125 0.15000000000000002 0.17500000000000002 0.2 0.225 0.25 0.275 0.30000000000000004 0.325 0.35000000000000003 0.375 0.4 0.42500000000000004 0.45 0.47500000000000003 0.5 0.525 0.55 0.5750000000000001 0.6000000000000001 0.625 0.65 0.675 0.7000000000000001 0.7250000000000001 0.75 0.775 0.8 0.8250000000000001 0.8500000000000001 0.875 0.9 0.925 0.9500000000000001 0.9750000000000001 1.0 0.0 0.025 0.05 0.07500000000000001 0.1 0.125 0.15000000000000002 0.17500000000000002 0.2 0.225 0.25 0.275 0.30000000000000004 0.325 0.35000000000000003 0.375 0.4 0.42500000000000004 0.45 0.47500000000000003 0.5 0.525 0.55 0.5750000000000001 0.6000000000000001 0.625 0.65 0.675 0.7000000000000001 0.7250000000000001 0.75 0.775 0.8 0.8250000000000001 0.8500000000000001 0.875 0.9 0.925 0.9500000000000001 0.9750000000000001 1.0 0.0 0.025 0.05 0.07500000000000001 0.1 0.125 0.15000000000000002 0.17500000000000002 0.2 0.225 0.25 0.275 0.30000000000000004 0.325 0.35000000000000003 0.375 0.4 0.42500000000000004 0.45 0.47500000000000003 0.5 0.525 0.55 0.5750000000000001 0.6000000000000001 0.625 0.65 0.675 0.7000000000000001 0.7250000000000001 0.75 0.775 0.8 0.8250000000000001 0.8500000000000001 0.875 0.9 0.925 0.9500000000000001 0.9750000000000001 1.0 0.0 0.025 0.05 0.07500000000000001 0.1 0.125 0.15000000000000002 0.17500000000000002 0.2 0.225 0.25 0.275 0.30000000000000004 0.325 0.35000000000000003 0.375 0.4 0.42500000000000004 0.45 0.47500000000000003 0.5 0.525 0.55 0.5750000000000001 0.6000000000000001 0.625 0.65 0.675 0.7000000000000001 0.7250000000000001 0.75 0.775 0.8 0.8250000000000001 0.8500000000000001 0.875 0.9 0.925 0.9500000000000001 0.9750000000000001 1.0 0.0 0.025 0.05 0.07500000000000001 0.1 0.125 0.15000000000000002 0.17500000000000002 0.2 0.225 0.25 0.275 0.30000000000000004 0.325 0.35000000000000003 0.375 0.4 0.42500000000000004 0.45 0.47500000000000003 0.5 0.525 0.55 0.5750000000000001 0.6000000000000001 0.625 0.65 0.675 0.7000000000000001 0.7250000000000001 0.75 0.775 0.8 0.8250000000000001 0.8500000000000001 0.875 0.9 0.925 0.9500000000000001 0.9750000000000001 1.0 0.0 0.025 0.05 0.07500000000000001 0.1 0.125 0.15000000000000002 0.17500000000000002 0.2 0.225 0.25 0.275 0.30000000000000004 0.325 0.35000000000000003 0.375 0.4 0.42500000000000004 0.45 0.47500000000000003 0.5 0.525 0.55 0.5750000000000001 0.6000000000000001 0.625 0.65 0.675 0.7000000000000001 0.7250000000000001 0.75 0.775 0.8 0.8250000000000001 0.8500000000000001 0.875 0.9 0.925 0.9500000000000001 0.9750000000000001 1.0 0.0 0.025 0.05 0.07500000000000001 0.1 0.125 0.15000000000000002 0.17500000000000002 0.2 0.225 0.25 0.275 0.30000000000000004 0.325 0.35000000000000003 0.375 0.4 0.42500000000000004 0.45 0.47500000000000003 0.5 0.525 0.55 0.5750000000000001 0.6000000000000001 0.625 0.65 0.675 0.7000000000000001 0.7250000000000001 0.75 0.775 0.8 0.8250000000000001 0.8500000000000001 0.875 0.9 0.925 0.9500000000000001 0.9750000000000001 1.0 0.0 0.025 0.05 0.07500000000000001 0.1 0.125 0.15000000000000002 0.17500000000000002 0.2 0.225 0.25 0.275 0.30000000000000004 0.325 0.35000000000000003 0.375 0.4 0.42500000000000004 0.45 0.47500000000000003 0.5 0.525 0.55 0.5750000000000001 0.6000000000000001 0.625 0.65 0.675 0.7000000000000001 0.7250000000000001 0.75 0.775 0.8 0.8250000000000001 0.8500000000000001 0.875 0.9 0.925 0.9500000000000001 0.9750000000000001 1.0 0.0 0.025 0.05 0.07500000000000001 0.1 0.125 0.15000000000000002 0.17500000000000002 0.2 0.225 0.25 0.275 0.30000000000000004 0.325 0.35000000000000003 0.375 0.4 0.42500000000000004 0.45 0.47500000000000003 0.5 0.525 0.55 0.5750000000000001 0.6000000000000001 0.625 0.65 0.675 0.7000000000000001 0.7250000000000001 0.75 0.775 0.8 0.8250000000000001 0.8500000000000001 0.875 0.9 0.925 0.9500000000000001 0.9750000000000001 1.0 0.0 0.025 0.05 0.07500000000000001 0.1 0.125 0.15000000000000002 0.17500000000000002 0.2 0.225 0.25 0.275 0.30000000000000004 0.325 0.35000000000000003 0.375 0.4 0.42500000000000004 0.45 0.47500000000000003 0.5 0.525 0.55 0.5750000000000001 0.6000000000000001 0.625 0.65 0.675 0.7000000000000001 0.7250000000000001 0.75 0.775 0.8 0.8250000000000001 0.8500000000000001 0.875 0.9 0.925 0.9500000000000001 0.9750000000000001 1.0 0.0 0.025 0.05 0.07500000000000001 0.1 0.125 0.15000000000000002 0.17500000000000002 0.2 0.225 0.25 0.275 0.30000000000000004 0.325 0.35000000000000003 0.375 0.4 0.42500000000000004 0.45 0.47500000000000003 0.5 0.525 0.55 0.5750000000000001 0.6000000000000001 0.625 0.65 0.675 0.7000000000000001 0.7250000000000001 0.75 0.775 0.8 0.8250000000000001 0.8500000000000001 0.875 0.9 0.925 0.9500000000000001 0.9750000000000001 1.0 0.0 0.025 0.05 0.07500000000000001 0.1 0.125 0.15000000000000002 0.17500000000000002 0.2 0.225 0.25 0.275 0.30000000000000004 0.325 0.35000000000000003 0.375 0.4 0.42500000000000004 0.45 0.47500000000000003 0.5 0.525 0.55 0.5750000000000001 0.6000000000000001 0.625 0.65 0.675 0.7000000000000001 0.7250000000000001 0.75 0.775 0.8 0.8250000000000001 0.8500000000000001 0.875 0.9 0.925 0.9500000000000001 0.9750000000000001 1.0 0.0 0.025 0.05 0.07500000000000001 0.1 0.125 0.15000000000000002 0.17500000000000002 0.2 0.225 0.25 0.275 0.30000000000000004 0.325 0.35000000000000003 0.375 0.4 0.42500000000000004 0.45 0.47500000000000003 0.5 0.525 0.55 0.5750000000000001 0.6000000000000001 0.625 0.65 0.675 0.7000000000000001 0.7250000000000001 0.75 0.775 0.8 0.8250000000000001 0.8500000000000001 0.875 0.9 0.925 0.9500000000000001 0.9750000000000001 1.0 0.0 0.025 0.05 0.07500000000000001 0.1 0.125 0.15000000000000002 0.17500000000000002 0.2 0.225 0.25 0.275 0.30000000000000004 0.325 0.35000000000000003 0.375 0.4 0.42500000000000004 0.45 0.47500000000000003 0.5 0.525 0.55 0.5750000000000001 0.6000000000000001 0.625 0.65 0.675 0.7000000000000001 0.7250000000000001 0.75 0.775 0.8 0.8250000000000001 0.8500000000000001 0.875 0.9 0.925 0.9500000000000001 0.9750000000000001 1.0 0.0 0.025 0.05 0.07500000000000001 0.1 0.125 0.15000000000000002 0.17500000000000002 0.2 0.225 0.25 0.275 0.30000000000000004 0.325 0.35000000000000003 0.375 0.4 0.42500000000000004 0.45 0.47500000000000003 0.5 0.525 0.55 0.5750000000000001 0.6000000000000001 0.625 0.65 0.675 0.7000000000000001 0.7250000000000001 0.75 0.775 0.8 0.8250000000000001 0.8500000000000001 0.875 0.9 0.925 0.9500000000000001 0.9750000000000001 1.0 0.0 0.025 0.05 0.07500000000000001 0.1 0.125 0.15000000000000002 0.17500000000000002 0.2 0.225 0.25 0.275 0.30000000000000004 0.325 0.35000000000000003 0.375 0.4 0.42500000000000004 0.45 0.47500000000000003 0.5 0.525 0.55 0.5750000000000001 0.6000000000000001 0.625 0.65 0.675 0.7000000000000001 0.7250000000000001 0.75 0.775 0.8 0.8250000000000001 0.8500000000000001 0.875 0.9 0.925 0.9500000000000001 0.9750000000000001 1.0 0.0 0.025 0.05 0.07500000000000001 0.1 0.125 0.15000000000000002 0.17500000000000002 0.2 0.225 0.25 0.275 0.30000000000000004 0.325 0.35000000000000003 0.375 0.4 0.42500000000000004 0.45 0.47500000000000003 0.5 0.525 0.55 0.5750000000000001 0.6000000000000001 0.625 0.65 0.675 0.7000000000000001 0.7250000000000001 0.75 0.775 0.8 0.8250000000000001 0.8500000000000001 0.875 0.9 0.925 0.9500000000000001 0.9750000000000001 1.0 0.0 0.025 0.05 0.07500000000000001 0.1 0.125 0.15000000000000002 0.17500000000000002 0.2 0.225 0.25 0.275 0.30000000000000004 0.325 0.35000000000000003 0.375 0.4 0.42500000000000004 0.45 0.47500000000000003 0.5 0.525 0.55 0.5750000000000001 0.6000000000000001 0.625 0.65 0.675 0.7000000000000001 0.7250000000000001 0.75 0.775 0.8 0.8250000000000001 0.8500000000000001 0.875 0.9 0.925 0.9500000000000001 0.9750000000000001 1.0 0.0 0.025 0.05 0.07500000000000001 0.1 0.125 0.15000000000000002 0.17500000000000002 0.2 0.225 0.25 0.275 0.30000000000000004 0.325 0.35000000000000003 0.375 0.4 0.42500000000000004 0.45 0.47500000000000003 0.5 0.525 0.55 0.5750000000000001 0.6000000000000001 0.625 0.65 0.675 0.7000000000000001 0.7250000000000001 0.75 0.775 0.8 0.8250000000000001 0.8500000000000001 0.875 0.9 0.925 0.9500000000000001 0.9750000000000001 1.0 0.0 0.025 0.05 0.07500000000000001 0.1 0.125 0.15000000000000002 0.17500000000000002 0.2 0.225 0.25 0.275 0.30000000000000004 0.325 0.35000000000000003 0.375 0.4 
0.42500000000000004 0.45 0.47500000000000003 0.5 0.525 0.55 0.5750000000000001 0.6000000000000001 0.625 0.65 0.675 0.7000000000000001 0.7250000000000001 0.75 0.775 0.8 0.8250000000000001 0.8500000000000001 0.875 0.9 0.925 0.9500000000000001 0.9750000000000001 1.0 0.0 0.025 0.05 0.07500000000000001 0.1 0.125 0.15000000000000002 0.17500000000000002 0.2 0.225 0.25 0.275 0.30000000000000004 0.325 0.35000000000000003 0.375 0.4 0.42500000000000004 0.45 0.47500000000000003 0.5 0.525 0.55 0.5750000000000001 0.6000000000000001 0.625 0.65 0.675 0.7000000000000001 0.7250000000000001 0.75 0.775 0.8 0.8250000000000001 0.8500000000000001 0.875 0.9 0.925 0.9500000000000001 0.9750000000000001 1.0 0.0 0.025 0.05 0.07500000000000001 0.1 0.125 0.15000000000000002 0.17500000000000002 0.2 0.225 0.25 0.275 0.30000000000000004 0.325 0.35000000000000003 0.375 0.4 0.42500000000000004 0.45 0.47500000000000003 0.5 0.525 0.55 0.5750000000000001 0.6000000000000001 0.625 0.65 0.675 0.7000000000000001 0.7250000000000001 0.75 0.775 0.8 0.8250000000000001 0.8500000000000001 0.875 0.9 0.925 0.9500000000000001 0.9750000000000001 1.0 0.0 0.025 0.05 0.07500000000000001 0.1 0.125 0.15000000000000002 0.17500000000000002 0.2 0.225 0.25 0.275 0.30000000000000004 0.325 0.35000000000000003 0.375 0.4 0.42500000000000004 0.45 0.47500000000000003 0.5 0.525 0.55 0.5750000000000001 0.6000000000000001 0.625 0.65 0.675 0.7000000000000001 0.7250000000000001 0.75 0.775 0.8 0.8250000000000001 0.8500000000000001 0.875 0.9 0.925 0.9500000000000001 0.9750000000000001 1.0 0.0 0.025 0.05 0.07500000000000001 0.1 0.125 0.15000000000000002 0.17500000000000002 0.2 0.225 0.25 0.275 0.30000000000000004 0.325 0.35000000000000003 0.375 0.4 0.42500000000000004 0.45 0.47500000000000003 0.5 0.525 0.55 0.5750000000000001 0.6000000000000001 0.625 0.65 0.675 0.7000000000000001 0.7250000000000001 0.75 0.775 0.8 0.8250000000000001 0.8500000000000001 0.875 0.9 0.925 0.9500000000000001 0.9750000000000001 1.0 0.0 0.025 0.05 0.07500000000000001 0.1 0.125 0.15000000000000002 0.17500000000000002 0.2 0.225 0.25 0.275 0.30000000000000004 0.325 0.35000000000000003 0.375 0.4 0.42500000000000004 0.45 0.47500000000000003 0.5 0.525 0.55 0.5750000000000001 0.6000000000000001 0.625 0.65 0.675 0.7000000000000001 0.7250000000000001 0.75 0.775 0.8 0.8250000000000001 0.8500000000000001 0.875 0.9 0.925 0.9500000000000001 0.9750000000000001 1.0 0.0 0.025 0.05 0.07500000000000001 0.1 0.125 0.15000000000000002 0.17500000000000002 0.2 0.225 0.25 0.275 0.30000000000000004 0.325 0.35000000000000003 0.375 0.4 0.42500000000000004 0.45 0.47500000000000003 0.5 0.525 0.55 0.5750000000000001 0.6000000000000001 0.625 0.65 0.675 0.7000000000000001 0.7250000000000001 0.75 0.775 0.8 0.8250000000000001 0.8500000000000001 0.875 0.9 0.925 0.9500000000000001 0.9750000000000001 1.0 0.0 0.025 0.05 0.07500000000000001 0.1 0.125 0.15000000000000002 0.17500000000000002 0.2 0.225 0.25 0.275 0.30000000000000004 0.325 0.35000000000000003 0.375 0.4 0.42500000000000004 0.45 0.47500000000000003 0.5 0.525 0.55 0.5750000000000001 0.6000000000000001 0.625 0.65 0.675 0.7000000000000001 0.7250000000000001 0.75 0.775 0.8 0.8250000000000001 0.8500000000000001 0.875 0.9 0.925 0.9500000000000001 0.9750000000000001 1.0 0.0 0.025 0.05 0.07500000000000001 0.1 0.125 0.15000000000000002 0.17500000000000002 0.2 0.225 0.25 0.275 0.30000000000000004 0.325 0.35000000000000003 0.375 0.4 0.42500000000000004 0.45 0.47500000000000003 0.5 0.525 0.55 0.5750000000000001 0.6000000000000001 0.625 0.65 0.675 0.7000000000000001 0.7250000000000001 0.75 0.775 0.8 0.8250000000000001 0.8500000000000001 0.875 0.9 0.925 0.9500000000000001 0.9750000000000001 1.0 0.0 0.025 0.05 0.07500000000000001 0.1 0.125 0.15000000000000002 0.17500000000000002 0.2 0.225 0.25 0.275 0.30000000000000004 0.325 0.35000000000000003 0.375 0.4 0.42500000000000004 0.45 0.47500000000000003 0.5 0.525 0.55 0.5750000000000001 0.6000000000000001 0.625 0.65 0.675 0.7000000000000001 0.7250000000000001 0.75 0.775 0.8 0.8250000000000001 0.8500000000000001 0.875 0.9 0.925 0.9500000000000001 0.9750000000000001 1.0 0.0 0.025 0.05 0.07500000000000001 0.1 0.125 0.15000000000000002 0.17500000000000002 0.2 0.225 0.25 0.275 0.30000000000000004 0.325 0.35000000000000003 0.375 0.4 0.42500000000000004 0.45 0.47500000000000003 0.5 0.525 0.55 0.5750000000000001 0.6000000000000001 0.625 0.65 0.675 0.7000000000000001 0.7250000000000001 0.75 0.775 0.8 0.8250000000000001 0.8500000000000001 0.875 0.9 0.925 0.9500000000000001 0.9750000000000001 1.0 0.0 0.025 0.05 0.07500000000000001 0.1 0.125 0.15000000000000002 0.17500000000000002 0.2 0.225 0.25 0.275 0.30000000000000004 0.325 0.35000000000000003 0.375 0.4 0.42500000000000004 0.45 0.47500000000000003 0.5 0.525 0.55 0.5750000000000001 0.6000000000000001 0.625 0.65 0.675 0.7000000000000001 0.7250000000000001 0.75 0.775 0.8 0.8250000000000001 0.8500000000000001 0.875 0.9 0.925 0.9500000000000001 0.9750000000000001 1.0 0.0 0.025 0.05 0.07500000000000001 0.1 0.125 0.15000000000000002 0.17500000000000002 0.2 0.225 0.25 0.275 0.30000000000000004 0.325 0.35000000000000003 0.375 0.4 0.42500000000000004 0.45 0.47500000000000003 0.5 0.525 0.55 0.5750000000000001 0.6000000000000001 0.625 0.65 0.675 0.7000000000000001 0.7250000000000001 0.75 0.775 0.8 0.8250000000000001 0.8500000000000001 0.875 0.9 0.925 0.9500000000000001 0.9750000000000001 1.0 0.0 0.025 0.05 0.07500000000000001 0.1 0.125 0.15000000000000002 0.17500000000000002 0.2 0.225 0.25 0.275 0.30000000000000004 0.325 0.35000000000000003 0.375 0.4 0.42500000000000004 0.45 0.47500000000000003 0.5 0.525 0.55 0.5750000000000001 0.6000000000000001 0.625 0.65 0.675 0.7000000000000001 0.7250000000000001 0.75 0.775 0.8 0.8250000000000001 0.8500000000000001 0.875 0.9 0.925 0.9500000000000001 0.9750000000000001 1.0 0.0 0.025 0.05 0.07500000000000001 0.1 0.125 0.15000000000000002 0.17500000000000002 0.2 0.225 0.25 0.275 0.30000000000000004 0.325 0.35000000000000003 0.375 0.4 0.42500000000000004 0.45 0.47500000000000003 0.5 0.525 0.55 0.5750000000000001 0.6000000000000001 0.625 0.65 0.675 0.7000000000000001 0.7250000000000001 0.75 0.775 0.8 0.8250000000000001 0.8500000000000001 0.875 0.9 0.925 0.9500000000000001 0.9750000000000001 1.0 0.0 0.025 0.05 0.07500000000000001 0.1 0.125 0.15000000000000002 0.17500000000000002 0.2 0.225 0.25 0.275 0.30000000000000004 0.325 0.35000000000000003 0.375 0.4 0.42500000000000004 0.45 0.47500000000000003 0.5 0.525 0.55 0.5750000000000001 0.6000000000000001 0.625 0.65 0.675 0.7000000000000001 0.7250000000000001 0.75 0.775 0.8 0.8250000000000001 0.8500000000000001 0.875 0.9 0.925 0.9500000000000001 0.9750000000000001 1.0 0.0 0.025 0.05 0.07500000000000001 0.1 0.125 0.15000000000000002 0.17500000000000002 0.2 0.225 0.25 0.275 0.30000000000000004 0.325 0.35000000000000003 0.375 0.4 0.42500000000000004 0.45 0.47500000000000003 0.5 0.525 0.55 0.5750000000000001 0.6000000000000001 0.625 0.65 0.675 0.7000000000000001 0.7250000000000001 0.75 0.775 0.8 0.8250000000000001 0.8500000000000001 0.875 0.9 0.925 0.9500000000000001 0.9750000000000001 1.0 
1.0 
1.0 1.0 1.0 1.0 1.0 1.0 1.0 1.0 1.0 1.0 1.0 1.0 1.0 1.0 1.0 1.0 1.0 1.0 1.0 1.0 1.0 1.0 1.0 1.0 1.0 1.0 1.0 1.0 1.0 1.0 1.0 1.0 1.0 1.0 1.0 1.0 1.0 1.0 1.0 1.0 0.975 0.975 0.975 0.975 0.975 0.975 0.975 0.975 0.975 0.975 0.975 0.975 0.975 0.975 0.975 0.975 0.975 0.975 0.975 0.975 0.975 0.975 0.975 0.975 0.975 0.975 0.975 0.975 0.975 0.975 0.975 0.975 0.975 0.975 0.975 0.975 0.975 0.975 0.975 0.975 0.975 0.95 0.95 0.95 0.95 0.95 0.95 0.95 0.95 0.95 0.95 0.95 0.95 0.95 0.95 0.95 0.95 0.95 0.95 0.95 0.95 0.95 0.95 0.95 0.95 0.95 0.95 0.95 0.95 0.95 0.95 0.95 0.95 0.95 0.95 0.95 0.95 0.95 0.95 0.95 0.95 0.95 0.925 0.925 0.925 0.925 0.925 0.925 0.925 0.925 0.925 0.925 0.925 0.925 0.925 0.925 0.925 0.925 0.925 0.925 0.925 0.925 0.925 0.925 0.925 0.925 0.925 0.925 0.925 0.925 0.925 0.925 0.925 0.925 0.925 0.925 0.925 0.925 0.925 0.925 0.925 0.925 0.925 0.9 0.9 0.9 0.9 0.9 0.9 0.9 0.9 0.9 0.9 0.9 0.9 0.9 0.9 0.9 0.9 0.9 0.9 0.9 0.9 0.9 0.9 0.9 0.9 0.9 0.9 0.9 0.9 0.9 0.9 0.9 0.9 0.9 0.9 0.9 0.9 0.9 0.9 0.9 0.9 0.9 0.875 0.875 0.875 0.875 0.875 0.875 0.875 0.875 0.875 0.875 0.875 0.875 0.875 0.875 0.875 0.875 0.875 0.875 0.875 0.875 0.875 0.875 0.875 0.875 0.875 0.875 0.875 0.875 0.875 0.875 0.875 0.875 0.875 0.875 0.875 0.875 0.875 0.875 0.875 0.875 0.875 0.85 0.85 0.85 0.85 0.85 0.85 0.85 0.85 0.85 0.85 0.85 0.85 0.85 0.85 0.85 0.85 0.85 0.85 0.85 0.85 0.85 0.85 0.85 0.85 0.85 0.85 0.85 0.85 0.85 0.85 0.85 0.85 0.85 0.85 0.85 0.85 0.85 0.85 0.85 0.85 0.85 0.825 0.825 0.825 0.825 0.825 0.825 0.825 0.825 0.825 0.825 0.825 0.825 0.825 0.825 0.825 0.825 0.825 0.825 0.825 0.825 0.825 0.825 0.825 0.825 0.825 0.825 0.825 0.825 0.825 0.825 0.825 0.825 0.825 0.825 0.825 0.825 0.825 0.825 0.825 0.825 0.825 0.8 0.8 0.8 0.8 0.8 0.8 0.8 0.8 0.8 0.8 0.8 0.8 0.8 0.8 0.8 0.8 0.8 0.8 0.8 0.8 0.8 0.8 0.8 0.8 0.8 0.8 0.8 0.8 0.8 0.8 0.8 0.8 0.8 0.8 0.8 0.8 0.8 0.8 0.8 0.8 0.8 0.775 0.775 0.775 0.775 0.775 0.775 0.775 0.775 0.775 0.775 0.775 0.775 0.775 0.775 0.775 0.775 0.775 0.775 0.775 0.775 0.775 0.775 0.775 0.775 0.775 0.775 0.775 0.775 0.775 0.775 0.775 0.775 0.775 0.775 0.775 0.775 0.775 0.775 0.775 0.775 0.775 0.75 0.75 0.75 0.75 0.75 0.75 0.75 0.75 0.75 0.75 0.75 0.75 0.75 0.75 0.75 0.75 0.75 0.75 0.75 0.75 0.75 0.75 0.75 0.75 0.75 0.75 0.75 0.75 0.75 0.75 0.75 0.75 0.75 0.75 0.75 0.75 0.75 0.75 0.75 0.75 0.75 0.725 0.725 0.725 0.725 0.725 0.725 0.725 0.725 0.725 0.725 0.725 0.725 0.725 0.725 0.725 0.725 0.725 0.725 0.725 0.725 0.725 0.725 0.725 0.725 0.725 0.725 0.725 0.725 0.725 0.725 0.725 0.725 0.725 0.725 0.725 0.725 0.725 0.725 0.725 0.725 0.725 0.7 0.7 0.7 0.7 0.7 0.7 0.7 0.7 0.7 0.7 0.7 0.7 0.7 0.7 0.7 0.7 0.7 0.7 0.7 0.7 0.7 0.7 0.7 0.7 0.7 0.7 0.7 0.7 0.7 0.7 0.7 0.7 0.7 0.7 0.7 0.7 0.7 0.7 0.7 0.7 0.7 0.675 0.675 0.675 0.675 0.675 0.675 0.675 0.675 0.675 0.675 0.675 0.675 0.675 0.675 0.675 0.675 0.675 0.675 0.675 0.675 0.675 0.675 0.675 0.675 0.675 0.675 0.675 0.675 0.675 0.675 0.675 0.675 0.675 0.675 0.675 0.675 0.675 0.675 0.675 0.675 0.675 0.6499999999999999 0.6499999999999999 0.6499999999999999 0.6499999999999999 0.6499999999999999 0.6499999999999999 0.6499999999999999 0.6499999999999999 0.6499999999999999 0.6499999999999999 0.6499999999999999 0.6499999999999999 0.6499999999999999 0.6499999999999999 0.6499999999999999 0.6499999999999999 0.6499999999999999 0.6499999999999999 0.6499999999999999 0.6499999999999999 0.6499999999999999 0.6499999999999999 0.6499999999999999 0.6499999999999999 0.6499999999999999 0.6499999999999999 0.6499999999999999 0.6499999999999999 0.6499999999999999 0.6499999999999999 0.6499999999999999 0.6499999999999999 0.6499999999999999 0.6499999999999999 0.6499999999999999 0.6499999999999999 0.6499999999999999 0.6499999999999999 0.6499999999999999 0.6499999999999999 0.6499999999999999 0.625 0.625 0.625 0.625 0.625 0.625 0.625 0.625 0.625 0.625 0.625 0.625 0.625 0.625 0.625 0.625 0.625 0.625 0.625 0.625 0.625 0.625 0.625 0.625 0.625 0.625 0.625 0.625 0.625 0.625 0.625 0.625 0.625 0.625 0.625 0.625 0.625 0.625 0.625 0.625 0.625 0.6 0.6 0.6 0.6 0.6 0.6 0.6 0.6 0.6 0.6 0.6 0.6 0.6 0.6 0.6 0.6 0.6 0.6 0.6 0.6 0.6 0.6 0.6 0.6 0.6 0.6 0.6 0.6 0.6 0.6 0.6 0.6 0.6 0.6 0.6 0.6 0.6 0.6 0.6 0.6 0.6 0.575 0.575 0.575 0.575 0.575 0.575 0.575 0.575 0.575 0.575 0.575 0.575 0.575 0.575 0.575 0.575 0.575 0.575 0.575 0.575 0.575 0.575 0.575 0.575 0.575 0.575 0.575 0.575 0.575 0.575 0.575 0.575 0.575 0.575 0.575 0.575 0.575 0.575 0.575 0.575 0.575 0.55 0.55 0.55 0.55 0.55 0.55 0.55 0.55 0.55 0.55 0.55 0.55 0.55 0.55 0.55 0.55 0.55 0.55 0.55 0.55 0.55 0.55 0.55 0.55 0.55 0.55 0.55 0.55 0.55 0.55 0.55 0.55 0.55 0.55 0.55 0.55 0.55 0.55 0.55 0.55 0.55 0.5249999999999999 0.5249999999999999 0.5249999999999999 0.5249999999999999 0.5249999999999999 0.5249999999999999 0.5249999999999999 0.5249999999999999 0.5249999999999999 0.5249999999999999 0.5249999999999999 0.5249999999999999 0.5249999999999999 0.5249999999999999 0.5249999999999999 0.5249999999999999 0.5249999999999999 0.5249999999999999 0.5249999999999999 0.5249999999999999 0.5249999999999999 0.5249999999999999 0.5249999999999999 0.5249999999999999 0.5249999999999999 0.5249999999999999 0.5249999999999999 0.5249999999999999 0.5249999999999999 0.5249999999999999 0.5249999999999999 0.5249999999999999 0.5249999999999999 0.5249999999999999 0.5249999999999999 0.5249999999999999 0.5249999999999999 0.5249999999999999 0.5249999999999999 0.5249999999999999 0.5249999999999999 0.5 0.5 0.5 0.5 0.5 0.5 0.5 0.5 0.5 0.5 0.5 0.5 0.5 0.5 0.5 0.5 0.5 0.5 0.5 0.5 0.5 0.5 0.5 0.5 0.5 0.5 0.5 0.5 0.5 0.5 0.5 0.5 0.5 0.5 0.5 0.5 0.5 0.5 0.5 0.5 0.5 0.475 0.475 0.475 0.475 0.475 0.475 0.475 0.475 0.475 0.475 0.475 0.475 0.475 0.475 0.475 0.475 0.475 0.475 0.475 0.475 0.475 0.475 0.475 0.475 0.475 0.475 0.475 0.475 0.475 0.475 0.475 0.475 0.475 0.475 0.475 0.475 0.475 0.475 0.475 0.475 0.475 0.44999999999999996 0.44999999999999996 0.44999999999999996 0.44999999999999996 0.44999999999999996 0.44999999999999996 0.44999999999999996 0.44999999999999996 0.44999999999999996 0.44999999999999996 0.44999999999999996 0.44999999999999996 0.44999999999999996 0.44999999999999996 0.44999999999999996 0.44999999999999996 0.44999999999999996 0.44999999999999996 0.44999999999999996 0.44999999999999996 0.44999999999999996 0.44999999999999996 0.44999999999999996 0.44999999999999996 0.44999999999999996 0.44999999999999996 0.44999999999999996 0.44999999999999996 0.44999999999999996 0.44999999999999996 0.44999999999999996 0.44999999999999996 0.44999999999999996 0.44999999999999996 0.44999999999999996 0.44999999999999996 0.44999999999999996 0.44999999999999996 0.44999999999999996 0.44999999999999996 0.44999999999999996 0.42499999999999993 0.42499999999999993 0.42499999999999993 0.42499999999999993 0.42499999999999993 0.42499999999999993 0.42499999999999993 0.42499999999999993 0.42499999999999993 0.42499999999999993 0.42499999999999993 0.42499999999999993 0.42499999999999993 0.42499999999999993 0.42499999999999993 0.42499999999999993 0.42499999999999993 0.42499999999999993 0.42499999999999993 0.42499999999999993 0.42499999999999993 0.42499999999999993 0.42499999999999993 0.42499999999999993 0.42499999999999993 0.42499999999999993 0.42499999999999993 0.42499999999999993 0.42499999999999993 0.42499999999999993 0.42499999999999993 0.42499999999999993 0.42499999999999993 0.42499999999999993 0.42499999999999993 0.42499999999999993 0.42499999999999993 0.42499999999999993 0.42499999999999993 0.42499999999999993 0.42499999999999993 0.3999999999999999 0.3999999999999999 0.3999999999999999 0.3999999999999999 0.3999999999999999 0.3999999999999999 0.3999999999999999 0.3999999999999999 0.3999999999999999 0.3999999999999999 0.3999999999999999 0.3999999999999999 0.3999999999999999 0.3999999999999999 0.3999999999999999 0.3999999999999999 0.3999999999999999 