VARIABLES="x","y","u","v","psi","w","Mx","My","Theta" 
ZONE NODES=19700, ELEMENTS=19379, DATAPACKING=BLOCK, VARLOCATION=([1,2]=nodal,[3,4,5,6,7,8,9]=CELLCENTERED), ZONETYPE=FEQUADRILATERAL
0.0 
0.314514952065184 0.6090905488873979 0.88499389572321 1.143411779885779 1.3854557756635018 1.6121670257127043 1.8245207194915771 2.02343028799895 2.209751332861559 2.3842853066705123 2.5477829603978854 2.7009475727222516 2.8444379751540563 2.9788713859732554 3.1048260651692834 3.2228438018034877 3.3334322444933018 3.437067085042659 3.534194104611437 3.6252310912254515 3.7105696368750913 3.7905768219327522 3.865596794134509 3.935952248917965 4.0019458174838896 4.063861368552338 4.121965229412699 4.176507331519976 4.22772228556504 4.2758303906432165 4.321038581862116 4.363541320464798 4.403521430297104 4.44115088421718 4.476591543829921 4.5099958557282385 4.54150750723605 4.5712620444736 4.599387455403732 4.626004720367034 4.65122833247398 4.675166790092511 4.697923063549462 4.719595038053344 4.740275934743686 4.76005471167808 4.7790164464817355 4.7972427023055095 4.814811878666576 4.831799548680837 4.848278784137687 4.86432046981542 4.8799936083892925 4.895365617243801 4.910502618465884 4.925469723266465 4.940331312053739 4.955151311362954 4.969993468833866 4.984921627418683 5.0 5.018585974274438 5.037077234315611 5.055487107357864 5.073828861977362 5.092115717655178 5.1103608543049805 5.128577421772225 5.1467785493116525 5.164977355049961 5.183186955440455 5.201420474716482 5.219691054350489 5.238011862525488 5.256396103625788 5.274857027753805 5.293407940279835 5.312062211431647 5.3308332859308365 5.34973469268285 5.368780054527704 5.387983098058387 5.407357663514056 5.426917714755127 5.446677349327469 5.466650808622961 5.486852488143695 5.507296947877284 5.5279989227906965 5.548973333450211 5.570235296775143 5.591800136933084 5.613683396384512 5.635900847084731 5.65846850185122 5.681402625904577 5.704719748591371 5.728436675297365 5.752570499559692 5.777138615386701 5.802158729794369 5.827648875568311 5.8536274242605675 5.880113099430572 5.907124990139799 5.934682564709867 5.962805684753959 5.9915146194917215 6.020830060357926 6.050773135915445 6.081365427083263 6.112628982690535 6.144586335367871 6.177260517787311 6.210675079262698 6.244854102722416 6.27982222206671 6.315604639922121 6.352227145805808 6.389716134712871 6.428098626140054 6.467402283559547 6.50765543435693 6.548887090247604 6.5911269681864555 6.6344055117858005 6.678753913257057 6.724204135891959 6.770788937099502 6.8185418920152445 6.867497417699967 6.917690797945138 6.969158208703045 7.021936744159953 7.076064443471052 7.131580318176471 7.188524380318141 7.246937671277712 7.306862291356392 7.368341430117949 7.431419397516802 7.496141655833595 7.562554852441297 7.6307068534254405 7.700646778082711 7.772425034322784 7.846093354998887 7.921704835193299 7.999313970484652 8.07897669622462 8.160750427852284 8.244694102275245 8.330868220347329 8.419334890473438 8.510157873373059 8.603402628034612 8.69913635889381 8.797428064270015 8.898348586095507 9.001970660973498 9.108368972601685 9.217620205599172 9.329803100775457 9.44499851188146 9.563289463883333 9.684761212801195 9.80950130715583 9.93759965106765 10.069148569053468 10.20424287256765 10.342979928335748 10.48545972852974 10.631784962835585 10.782061092464883 10.936396426164112 11.094902198276156 11.257692648910389 11.424885106279156 11.596600071259893 11.772961304243918 11.954095914334442 12.140134450958115 12.331210997956116 12.527463270222597 12.729032712960173 12.936064603623919 13.148708156627416 13.36711663088629 13.591447440276767 13.821862267088765 14.058527178555483 14.301612746543242 14.551294170488054 14.807751403667336 15.071169282897959 15.341737661753923 15.619651547399858 15.905111241138828 16.198322482775772 16.499496598900713 16.808850655198434 17.12660761289466 17.452996489451152 17.788252523625864 18.132617345016918 18.48633914821268 18.849672871673448 19.22288038147361 19.6062306600368 19.999999999999996 0.0 0.314514952065184 0.6090905488873979 0.88499389572321 1.143411779885779 1.3854557756635018 1.6121670257127043 1.8245207194915771 2.02343028799895 2.209751332861559 2.3842853066705123 2.5477829603978854 2.7009475727222516 2.8444379751540563 2.9788713859732554 3.1048260651692834 3.2228438018034877 3.3334322444933018 3.437067085042659 3.534194104611437 3.6252310912254515 3.7105696368750913 3.7905768219327522 3.865596794134509 3.935952248917965 4.0019458174838896 4.063861368552338 4.121965229412699 4.176507331519976 4.22772228556504 4.2758303906432165 4.321038581862116 4.363541320464798 4.403521430297104 4.44115088421718 4.476591543829921 4.5099958557282385 4.54150750723605 4.5712620444736 4.599387455403732 4.626004720367034 4.65122833247398 4.675166790092511 4.697923063549462 4.719595038053344 4.740275934743686 4.76005471167808 4.7790164464817355 4.7972427023055095 4.814811878666576 4.831799548680837 4.848278784137687 4.86432046981542 4.8799936083892925 4.895365617243801 4.910502618465884 4.925469723266465 4.940331312053739 4.955151311362954 4.969993468833866 4.984921627418683 5.0 5.018585974274438 5.037077234315611 5.055487107357864 5.073828861977362 5.092115717655178 5.1103608543049805 5.128577421772225 5.1467785493116525 5.164977355049961 5.183186955440455 5.201420474716482 5.219691054350489 5.238011862525488 5.256396103625788 5.274857027753805 5.293407940279835 5.312062211431647 5.3308332859308365 5.34973469268285 5.368780054527704 5.387983098058387 5.407357663514056 5.426917714755127 5.446677349327469 5.466650808622961 5.486852488143695 5.507296947877284 5.5279989227906965 5.548973333450211 5.570235296775143 5.591800136933084 5.613683396384512 5.635900847084731 5.65846850185122 5.681402625904577 5.704719748591371 5.728436675297365 5.752570499559692 5.777138615386701 5.802158729794369 5.827648875568311 5.8536274242605675 5.880113099430572 5.907124990139799 5.934682564709867 5.962805684753959 5.9915146194917215 6.020830060357926 6.050773135915445 6.081365427083263 6.112628982690535 6.144586335367871 6.177260517787311 6.210675079262698 6.244854102722416 6.27982222206671 6.315604639922121 6.352227145805808 6.389716134712871 6.428098626140054 6.467402283559547 6.50765543435693 6.548887090247604 6.5911269681864555 6.6344055117858005 6.678753913257057 6.724204135891959 6.770788937099502 6.8185418920152445 6.867497417699967 6.917690797945138 6.969158208703045 7.021936744159953 7.076064443471052 7.131580318176471 7.188524380318141 7.246937671277712 7.306862291356392 7.368341430117949 7.431419397516802 7.496141655833595 7.562554852441297 7.6307068534254405 7.700646778082711 7.772425034322784 7.846093354998887 7.921704835193299 7.999313970484652 8.07897669622462 8.160750427852284 8.244694102275245 8.330868220347329 8.419334890473438 8.510157873373059 8.603402628034612 8.69913635889381 8.797428064270015 8.898348586095507 9.001970660973498 9.108368972601685 9.217620205599172 9.329803100775457 9.44499851188146 9.563289463883333 9.684761212801195 9.80950130715583 9.93759965106765 10.069148569053468 10.20424287256765 10.342979928335748 10.48545972852974 10.631784962835585 10.782061092464883 10.936396426164112 11.094902198276156 11.257692648910389 11.424885106279156 11.596600071259893 11.772961304243918 11.954095914334442 12.140134450958115 12.331210997956116 12.527463270222597 12.729032712960173 12.936064603623919 13.148708156627416 13.36711663088629 13.591447440276767 13.821862267088765 14.058527178555483 14.301612746543242 14.551294170488054 14.807751403667336 15.071169282897959 15.341737661753923 15.619651547399858 15.905111241138828 16.198322482775772 16.499496598900713 16.808850655198434 17.12660761289466 17.452996489451152 17.788252523625864 18.132617345016918 18.48633914821268 18.849672871673448 19.22288038147361 19.6062306600368 19.999999999999996 0.0 0.314514952065184 0.6090905488873979 0.88499389572321 1.143411779885779 1.3854557756635018 1.6121670257127043 1.8245207194915771 2.02343028799895 2.209751332861559 2.3842853066705123 2.5477829603978854 2.7009475727222516 2.8444379751540563 2.9788713859732554 3.1048260651692834 3.2228438018034877 3.3334322444933018 3.437067085042659 3.534194104611437 3.6252310912254515 3.7105696368750913 3.7905768219327522 3.865596794134509 3.935952248917965 4.0019458174838896 4.063861368552338 4.121965229412699 4.176507331519976 4.22772228556504 4.2758303906432165 4.321038581862116 4.363541320464798 4.403521430297104 4.44115088421718 4.476591543829921 4.5099958557282385 4.54150750723605 4.5712620444736 4.599387455403732 4.626004720367034 4.65122833247398 4.675166790092511 4.697923063549462 4.719595038053344 4.740275934743686 4.76005471167808 4.7790164464817355 4.7972427023055095 4.814811878666576 4.831799548680837 4.848278784137687 4.86432046981542 4.8799936083892925 4.895365617243801 4.910502618465884 4.925469723266465 4.940331312053739 4.955151311362954 4.969993468833866 4.984921627418683 5.0 5.018585974274438 5.037077234315611 5.055487107357864 5.073828861977362 5.092115717655178 5.1103608543049805 5.128577421772225 5.1467785493116525 5.164977355049961 5.183186955440455 5.201420474716482 5.219691054350489 5.238011862525488 5.256396103625788 5.274857027753805 5.293407940279835 5.312062211431647 5.3308332859308365 5.34973469268285 5.368780054527704 5.387983098058387 5.407357663514056 5.426917714755127 5.446677349327469 5.466650808622961 5.486852488143695 5.507296947877284 5.5279989227906965 5.548973333450211 5.570235296775143 5.591800136933084 5.613683396384512 5.635900847084731 5.65846850185122 5.681402625904577 5.704719748591371 5.728436675297365 5.752570499559692 5.777138615386701 5.802158729794369 5.827648875568311 5.8536274242605675 5.880113099430572 5.907124990139799 5.934682564709867 5.962805684753959 5.9915146194917215 6.020830060357926 6.050773135915445 6.081365427083263 6.112628982690535 6.144586335367871 6.177260517787311 6.210675079262698 6.244854102722416 6.27982222206671 6.315604639922121 6.352227145805808 6.389716134712871 6.428098626140054 6.467402283559547 6.50765543435693 6.548887090247604 6.5911269681864555 6.6344055117858005 6.678753913257057 6.724204135891959 6.770788937099502 6.8185418920152445 6.867497417699967 6.917690797945138 6.969158208703045 7.021936744159953 7.076064443471052 7.131580318176471 7.188524380318141 7.246937671277712 7.306862291356392 7.368341430117949 7.431419397516802 7.496141655833595 7.562554852441297 7.6307068534254405 7.700646778082711 7.772425034322784 7.846093354998887 7.921704835193299 7.999313970484652 8.07897669622462 8.160750427852284 8.244694102275245 8.330868220347329 8.419334890473438 8.510157873373059 8.603402628034612 8.69913635889381 8.797428064270015 8.898348586095507 9.001970660973498 9.108368972601685 9.217620205599172 9.329803100775457 9.44499851188146 9.563289463883333 9.684761212801195 9.80950130715583 9.93759965106765 10.069148569053468 10.20424287256765 10.342979928335748 10.48545972852974 10.631784962835585 10.782061092464883 10.936396426164112 11.094902198276156 11.257692648910389 11.424885106279156 11.596600071259893 11.772961304243918 11.954095914334442 12.140134450958115 12.331210997956116 12.527463270222597 12.729032712960173 12.936064603623919 13.148708156627416 13.36711663088629 13.591447440276767 13.821862267088765 14.058527178555483 14.301612746543242 14.551294170488054 14.807751403667336 15.071169282897959 15.341737661753923 15.619651547399858 15.905111241138828 16.198322482775772 16.499496598900713 16.808850655198434 17.12660761289466 17.452996489451152 17.788252523625864 18.132617345016918 18.48633914821268 18.849672871673448 19.22288038147361 19.6062306600368 19.999999999999996 0.0 0.314514952065184 0.6090905488873979 0.88499389572321 1.143411779885779 1.3854557756635018 1.6121670257127043 1.8245207194915771 2.02343028799895 2.209751332861559 2.3842853066705123 2.5477829603978854 2.7009475727222516 2.8444379751540563 2.9788713859732554 3.1048260651692834 3.2228438018034877 3.3334322444933018 3.437067085042659 3.534194104611437 3.6252310912254515 3.7105696368750913 3.7905768219327522 3.865596794134509 3.935952248917965 4.0019458174838896 4.063861368552338 4.121965229412699 4.176507331519976 4.22772228556504 4.2758303906432165 4.321038581862116 4.363541320464798 4.403521430297104 4.44115088421718 4.476591543829921 4.5099958557282385 4.54150750723605 4.5712620444736 4.599387455403732 4.626004720367034 4.65122833247398 4.675166790092511 4.697923063549462 4.719595038053344 4.740275934743686 4.76005471167808 4.7790164464817355 4.7972427023055095 4.814811878666576 4.831799548680837 4.848278784137687 4.86432046981542 4.8799936083892925 4.895365617243801 4.910502618465884 4.925469723266465 4.940331312053739 4.955151311362954 4.969993468833866 4.984921627418683 5.0 5.018585974274438 5.037077234315611 5.055487107357864 5.073828861977362 5.092115717655178 5.1103608543049805 5.128577421772225 5.1467785493116525 5.164977355049961 5.183186955440455 5.201420474716482 5.219691054350489 5.238011862525488 5.256396103625788 5.274857027753805 5.293407940279835 5.312062211431647 5.3308332859308365 5.34973469268285 5.368780054527704 5.387983098058387 5.407357663514056 5.426917714755127 5.446677349327469 5.466650808622961 5.486852488143695 5.507296947877284 5.5279989227906965 5.548973333450211 5.570235296775143 5.591800136933084 5.613683396384512 5.635900847084731 5.65846850185122 5.681402625904577 5.704719748591371 5.728436675297365 5.752570499559692 5.777138615386701 5.802158729794369 5.827648875568311 5.8536274242605675 5.880113099430572 5.907124990139799 5.934682564709867 5.962805684753959 5.9915146194917215 6.020830060357926 6.050773135915445 6.081365427083263 6.112628982690535 6.144586335367871 6.177260517787311 6.210675079262698 6.244854102722416 6.27982222206671 6.315604639922121 6.352227145805808 6.389716134712871 6.428098626140054 6.467402283559547 6.50765543435693 6.548887090247604 6.5911269681864555 6.6344055117858005 6.678753913257057 6.724204135891959 6.770788937099502 6.8185418920152445 6.867497417699967 6.917690797945138 6.969158208703045 7.021936744159953 7.076064443471052 7.131580318176471 7.188524380318141 7.246937671277712 7.306862291356392 7.368341430117949 7.431419397516802 7.496141655833595 7.562554852441297 7.6307068534254405 7.700646778082711 7.772425034322784 7.846093354998887 7.921704835193299 7.999313970484652 8.07897669622462 8.160750427852284 8.244694102275245 8.330868220347329 8.419334890473438 8.510157873373059 8.603402628034612 8.69913635889381 8.797428064270015 8.898348586095507 9.001970660973498 9.108368972601685 9.217620205599172 9.329803100775457 9.44499851188146 9.563289463883333 9.684761212801195 9.80950130715583 9.93759965106765 10.069148569053468 10.20424287256765 10.342979928335748 10.48545972852974 10.631784962835585 10.782061092464883 10.936396426164112 11.094902198276156 11.257692648910389 11.424885106279156 11.596600071259893 11.772961304243918 11.954095914334442 12.140134450958115 12.331210997956116 12.527463270222597 12.729032712960173 12.936064603623919 13.148708156627416 13.36711663088629 13.591447440276767 13.821862267088765 14.058527178555483 14.301612746543242 14.551294170488054 14.807751403667336 15.071169282897959 15.341737661753923 15.619651547399858 15.905111241138828 16.198322482775772 16.499496598900713 16.808850655198434 17.12660761289466 17.452996489451152 17.788252523625864 18.132617345016918 18.48633914821268 18.849672871673448 19.22288038147361 19.6062306600368 19.999999999999996 0.0 0.314514952065184 0.6090905488873979 0.88499389572321 1.143411779885779 1.3854557756635018 1.6121670257127043 1.8245207194915771 2.02343028799895 2.209751332861559 2.3842853066705123 2.5477829603978854 2.7009475727222516 2.8444379751540563 2.9788713859732554 3.1048260651692834 3.2228438018034877 3.3334322444933018 3.437067085042659 3.534194104611437 3.6252310912254515 3.7105696368750913 3.7905768219327522 3.865596794134509 3.935952248917965 4.0019458174838896 4.063861368552338 4.121965229412699 4.176507331519976 4.22772228556504 4.2758303906432165 4.321038581862116 4.363541320464798 4.403521430297104 4.44115088421718 4.476591543829921 4.5099958557282385 4.54150750723605 4.5712620444736 4.599387455403732 4.626004720367034 4.65122833247398 4.675166790092511 4.697923063549462 4.719595038053344 4.740275934743686 4.76005471167808 4.7790164464817355 4.7972427023055095 4.814811878666576 4.831799548680837 4.848278784137687 4.86432046981542 4.8799936083892925 4.895365617243801 4.910502618465884 4.925469723266465 4.940331312053739 4.955151311362954 4.969993468833866 4.984921627418683 5.0 5.018585974274438 5.037077234315611 5.055487107357864 5.073828861977362 5.092115717655178 5.1103608543049805 5.128577421772225 5.1467785493116525 5.164977355049961 5.183186955440455 5.201420474716482 5.219691054350489 5.238011862525488 5.256396103625788 5.274857027753805 5.293407940279835 5.312062211431647 5.3308332859308365 5.34973469268285 5.368780054527704 5.387983098058387 5.407357663514056 5.426917714755127 5.446677349327469 5.466650808622961 5.486852488143695 5.507296947877284 5.5279989227906965 5.548973333450211 5.570235296775143 5.591800136933084 5.613683396384512 5.635900847084731 5.65846850185122 5.681402625904577 5.704719748591371 5.728436675297365 5.752570499559692 5.777138615386701 5.802158729794369 5.827648875568311 5.8536274242605675 5.880113099430572 5.907124990139799 5.934682564709867 5.962805684753959 5.9915146194917215 6.020830060357926 6.050773135915445 6.081365427083263 6.112628982690535 6.144586335367871 6.177260517787311 6.210675079262698 6.244854102722416 6.27982222206671 6.315604639922121 6.352227145805808 6.389716134712871 6.428098626140054 6.467402283559547 6.50765543435693 6.548887090247604 6.5911269681864555 6.6344055117858005 6.678753913257057 6.724204135891959 6.770788937099502 6.8185418920152445 6.867497417699967 6.917690797945138 6.969158208703045 7.021936744159953 7.076064443471052 7.131580318176471 7.188524380318141 7.246937671277712 7.306862291356392 7.368341430117949 7.431419397516802 7.496141655833595 7.562554852441297 7.6307068534254405 7.700646778082711 7.772425034322784 7.846093354998887 7.921704835193299 7.999313970484652 8.07897669622462 8.160750427852284 8.244694102275245 8.330868220347329 8.419334890473438 8.510157873373059 8.603402628034612 