VARIABLES="x","y" 
ZONE NODES=64260, ELEMENTS=63679, DATAPACKING=BLOCK, ZONETYPE=FEQUADRILATERAL
0.0 
0.13279194579635245 
0.26206489868336025 
0.38791329315490763 
0.5104290620490284 
0.6297017037052477 
0.7458183473435556 
0.858863816712689 
0.9689206920542874 
1.0760693704281428 
1.1803881244426186 
1.281953159433165 
1.380838669130661 
1.4771168898602842 
1.5708581533104904 
1.6621309379106233 
1.751001918854743 
1.8375360168081531 
1.921796445332252 
2.0038447570623408 
2.083740888672102 
2.1615432046576153 
2.2373085399729096 
2.3110922415481454 
2.3829482087208107 
2.4529289326094386 
2.5210855344586163 
2.5874678029832854 
2.652124230739637 
2.7151020495491434 
2.7764472650016274 
2.836204690062563 
2.894417977809147 
2.9511296533190796 
3.0063811447353355 
3.060212813529608 
3.1126639839865566 
3.1637729719303778 
3.2135771127146935 
3.2621127884962045 
3.3094154548120165 
3.355519666480086 
3.4004591028416664 
3.444266592364227 
3.4869741366228046 
3.528612933677297 
3.5692134008627976 
3.608805197009593 
3.6474172441090817 
3.6850777484414223 
3.7218142211803524 
3.757653498490229 
3.79262176112997 
3.8267445535782247 
3.860046802693728 
3.8925528359244934 
3.924286399079122 
3.955270673673229 
3.9855282938636485 
4.015081362982789 
4.04395146968522 
4.072159703718291 
4.09972667132828 
4.12667251031336 
4.1530169047343515 
4.178779099294022 
4.20397791339543 
4.228631754889584 
4.252758633522467 
4.276376174091242 
4.29950162931924 
4.322151892459162 
4.344343509633678 
4.366092691922442 
4.387415327204367 
4.40832699176379 
4.428842961669023 
4.44897822393159 
4.468747487454311 
4.488165193776222 
4.507245527622187 
4.526002427264906 
4.5444495947068875 
4.562600505689827 
4.580468419538694 
4.598066388847739 
4.615407269015464 
4.632503727635562 
4.649368253750644 
4.666013166975547 
4.682450626496869 
4.698692639955313 
4.714751072217322 
4.730637654042422 
4.7463639906525925 
4.761941570209939 
4.777381772208847 
4.792695875788758 
4.807895067973627 
4.822990451844103 
4.837993054648379 
4.852913835857645 
4.8677636951720356 
4.882553480482911 
4.897293995797292 
4.911996009130239 
4.926670260370933 
4.941327469128221 
4.955978342561333 
4.9706335832015185 
4.985303896770287 
5.0 
5.018204013343717 
5.036391634208416 
5.054565124728181 
5.072726745279594 
5.090878754762881 
5.109023410882862 
5.127162970429765 
5.145299689559919 
5.163435824076366 
5.181573629709437 
5.1997153623973125 
5.217863278566608 
5.236019635413032 
5.254186691182119 
5.272366705450114 
5.290561939405008 
5.308774656127784 
5.327007120873887 
5.345261601354981 
5.36354036802099 
5.381845694342502 
5.40017985709353 
5.418545136634698 
5.436943817196863 
5.4553781871652225 
5.47385053936394 
5.492363171341323 
5.51091838565558 
5.529518490161215 
5.548165798296071 
5.566862629369065 
5.585611308848664 
5.604414168652121 
5.62327354743551 
5.642191790884603 
5.6611712520066275 
5.68021429142292 
5.699323277662537 
5.71850058745685 
5.7377486060351535 
5.757069727421338 
5.77646635473165 
5.7959409004735924 
5.8154957868459745 
5.835133446040193 
5.854856320542733 
5.874666863438962 
5.89456753871824 
5.914560821580384 
5.934649198743526 
5.954835168753406 
5.975121242294138 
5.99550994250048 
6.016003805271655 
6.0366053795867645 
6.0573172278218195 
6.078141926068447 
6.099082064454295 
6.120140247465191 
6.141319094269075 
6.162621239041774 
6.1840493312946245 
6.205606036204025 
6.227294034942914 
6.249116025014252 
6.271074720586531 
6.293172852831357 
6.315413170263145 
6.337798439080971 
6.360331443512634 
6.383014986160941 
6.405851888352293 
6.428844990487599 
6.451997152395552 
6.47531125368833 
6.498790194119758 
6.522436893945967 
6.546254294288616 
6.570245357500697 
6.594413067534987 
6.618760430315181 
6.643290474109774 
6.668006249908692 
6.692910831802785 
6.718007317366164 
6.743298828041468 
6.768788509528115 
6.794479532173546 
6.820375091367546 
6.846478407939682 
6.872792728559903 
6.8993213261423545 
6.926067500252446 
6.953034577517255 
6.980225912039285 
7.007644885813628 
7.035294909148623 
7.063179421090019 
7.091301889848709 
7.119665813232109 
7.148274719079192 
7.177132165699293 
7.2062417423146625 
7.235607069506896 
7.265231799667255 
7.295119617450942 
7.325274240235382 
7.35569941858259 
7.386398936705655 
7.417376612939412 
7.448636300215353 
7.480181886540847 
7.512017295482732 
7.5441464866553005 
7.576573456212804 
7.609302237346477 
7.64233690078618 
7.675681555306696 
7.709340348238788 
7.743317465985028 
7.7776171345404785 
7.812243620018332 
7.847201229180509 
7.882494309973329 
7.918127252068288 
7.9541044874080455 
7.990430490757658 
8.027109780261135 
8.064146918003399 
8.101546510577705 
8.139313209658605 
8.177451712580496 
8.215966762921877 
8.254863151095352 
8.294145714943427 
8.33381934034025 
8.373888961799292 
8.414359563087096 
8.455236177843153 
8.496523890205955 
8.538227835445369 
8.580353200601344 
8.622905225129047 
8.665889201550563 
8.709310476113142 
8.753174449454168 
8.797486577272865 
8.842252371008875 
8.887477398527757 
8.933167284813498 
8.97932771266814 
9.025964423418596 
9.073083217630739 
9.120689955830864 
9.168790559234605 
9.217391010483414 
9.266497354388646 
9.316115698683415 
9.36625221478226 
9.416913138548722 
9.468104771070944 
9.519833479445412 
9.57210569756884 
9.624927926938444 
9.678306737460538 
9.732248768267727 
9.786760728544644 
9.841849398362422 
9.897521629521995 
9.953784346406298 
10.010644546841515 
10.068109302967441 
10.126185762117107 
10.18488114770576 
10.244202760129259 
10.304157977672116 
10.36475425742518 
10.425999136213129 
10.487900231531876 
10.550465242496031 
10.61370195079649 
10.677618221668311 
10.742222004868953 
10.807521335667072 
10.873524335841928 
10.940239214693532 
11.007674270063719 
11.075837889368216 
11.14473855063982 
11.21438482358292 
11.284785370639344 
11.355948948065791 
11.427884407022896 
11.500600694676134 
11.57410685530865 
11.648412031446146 
11.723525464994013 
11.799456498386839 
11.876214575750378 
11.953809244076187 
12.032250154409079 
12.111547063047468 
12.191709832756867 
12.272748433996576 
12.354672946159772 
12.437493558827207 
12.521220573034505 
12.605864402553426 
12.691435575187093 
12.777944734079409 
12.86540263903883 
12.953820167876646 
13.04320831775995 
13.133578206579417 
13.224941074332124 
13.317308284519587 
13.410691325561084 
13.505101812222591 
13.600551487061384 
13.69705222188654 
13.794616019235562 
13.893255013867181 
13.992981474270675 
14.09380780419181 
14.195746544175545 
14.298810373125837 
14.403012109882596 
14.508364714816057 
14.614881291438785 
14.722575088035423 
14.831459499310522 
14.941548068054507 
15.052854486828133 
15.165392599665497 
15.27917640379595 
15.394220051385048 
15.51053785129474 
15.628144270863094 
15.747053937703702 
15.867281641525015 
15.988842335969872 
16.111751140475405 
16.236023342153523 
16.361674397692326 
16.488719935278567 
16.617175756541418 
16.74705783851789 
16.878382335639962 
17.011165581743892 
17.14542409210172 
17.281174565475474 
17.41843388619403 
17.55721912625322 
17.697547547439196 
17.839436603475374 
17.982903942193328 
18.127967407727766 
18.27464504273594 
18.422955090641764 
18.57291599790488 
18.724546416314972 
18.877865205311657 
19.032891434330182 
19.189644385173203 
19.348143554409027 
19.508408655796572 
19.67045962273729 
19.834316610754442 
20.00000000000002 
0.0 
0.13279194579635245 
0.26206489868336025 
0.38791329315490763 
0.5104290620490284 
0.6297017037052477 
0.7458183473435556 
0.858863816712689 
0.9689206920542874 
1.0760693704281428 
1.1803881244426186 
1.281953159433165 
1.380838669130661 
1.4771168898602842 
1.5708581533104904 
1.6621309379106233 
1.751001918854743 
1.8375360168081531 
1.921796445332252 
2.0038447570623408 
2.083740888672102 
2.1615432046576153 
2.2373085399729096 
2.3110922415481454 
2.3829482087208107 
2.4529289326094386 
2.5210855344586163 
2.5874678029832854 
2.652124230739637 
2.7151020495491434 
2.7764472650016274 
2.836204690062563 
2.894417977809147 
2.9511296533190796 
3.0063811447353355 
3.060212813529608 
3.1126639839865566 
3.1637729719303778 
3.2135771127146935 
3.2621127884962045 
3.3094154548120165 
3.355519666480086 
3.4004591028416664 
3.444266592364227 
3.4869741366228046 
3.528612933677297 
3.5692134008627976 
3.608805197009593 
3.6474172441090817 
3.6850777484414223 
3.7218142211803524 
3.757653498490229 
3.79262176112997 
3.8267445535782247 
3.860046802693728 
3.8925528359244934 
3.924286399079122 
3.955270673673229 
3.9855282938636485 
4.015081362982789 
4.04395146968522 
4.072159703718291 
4.09972667132828 
4.12667251031336 
4.1530169047343515 
4.178779099294022 
4.20397791339543 
4.228631754889584 
4.252758633522467 
4.276376174091242 
4.29950162931924 
4.322151892459162 
4.344343509633678 
4.366092691922442 
4.387415327204367 
4.40832699176379 
4.428842961669023 
4.44897822393159 
4.468747487454311 
4.488165193776222 
4.507245527622187 
4.526002427264906 
4.5444495947068875 
4.562600505689827 
4.580468419538694 
4.598066388847739 
4.615407269015464 
4.632503727635562 
4.649368253750644 
4.666013166975547 
4.682450626496869 
4.698692639955313 
4.714751072217322 
4.730637654042422 
4.7463639906525925 
4.761941570209939 
4.777381772208847 
4.792695875788758 
4.807895067973627 
4.822990451844103 
4.837993054648379 
4.852913835857645 
4.8677636951720356 
4.882553480482911 
4.897293995797292 
4.911996009130239 
4.926670260370933 
4.941327469128221 
4.955978342561333 
4.9706335832015185 
4.985303896770287 
5.0 
5.018204013343717 
5.036391634208416 
5.054565124728181 
5.072726745279594 
5.090878754762881 
5.109023410882862 
5.127162970429765 
5.145299689559919 
5.163435824076366 
5.181573629709437 
5.1997153623973125 
5.217863278566608 
5.236019635413032 
5.254186691182119 
5.272366705450114 
5.290561939405008 
5.308774656127784 
5.327007120873887 
5.345261601354981 
5.36354036802099 
5.381845694342502 
5.40017985709353 
5.418545136634698 
5.436943817196863 
5.4553781871652225 
5.47385053936394 
5.492363171341323 
5.51091838565558 
5.529518490161215 
5.548165798296071 
5.566862629369065 
5.585611308848664 
5.604414168652121 
5.62327354743551 
5.642191790884603 
5.6611712520066275 
5.68021429142292 
5.699323277662537 
5.71850058745685 
5.7377486060351535 
5.757069727421338 
5.77646635473165 
5.7959409004735924 
5.8154957868459745 
5.835133446040193 
5.854856320542733 
5.874666863438962 
5.89456753871824 
5.914560821580384 
5.934649198743526 
5.954835168753406 
5.975121242294138 
5.99550994250048 
6.016003805271655 
6.0366053795867645 
6.0573172278218195 
6.078141926068447 
6.099082064454295 
6.120140247465191 
6.141319094269075 
6.162621239041774 
6.1840493312946245 
6.205606036204025 
6.227294034942914 
6.249116025014252 
6.271074720586531 
6.293172852831357 
6.315413170263145 
6.337798439080971 
6.360331443512634 
6.383014986160941 
6.405851888352293 
6.428844990487599 
6.451997152395552 
6.47531125368833 
6.498790194119758 
6.522436893945967 
6.546254294288616 
6.570245357500697 
6.594413067534987 
6.618760430315181 
6.643290474109774 
6.668006249908692 
6.692910831802785 
6.718007317366164 
6.743298828041468 
6.768788509528115 
6.794479532173546 
6.820375091367546 
6.846478407939682 
6.872792728559903 
6.8993213261423545 
6.926067500252446 
6.953034577517255 
6.980225912039285 
7.007644885813628 
7.035294909148623 
7.063179421090019 
7.091301889848709 
7.119665813232109 
7.148274719079192 
7.177132165699293 
7.2062417423146625 
7.235607069506896 
7.265231799667255 
7.295119617450942 
7.325274240235382 
7.35569941858259 
7.386398936705655 
7.417376612939412 
7.448636300215353 
7.480181886540847 
7.512017295482732 
7.5441464866553005 
7.576573456212804 
7.609302237346477 
7.64233690078618 
7.675681555306696 
7.709340348238788 
7.743317465985028 
7.7776171345404785 
7.812243620018332 
7.847201229180509 
7.882494309973329 
7.918127252068288 
7.9541044874080455 
7.990430490757658 
8.027109780261135 
8.064146918003399 
8.101546510577705 
8.139313209658605 
8.177451712580496 
8.215966762921877 
8.254863151095352 
8.294145714943427 
8.33381934034025 
8.373888961799292 
8.414359563087096 
8.455236177843153 
8.496523890205955 
8.538227835445369 
8.580353200601344 
8.622905225129047 
8.665889201550563 
8.709310476113142 
8.753174449454168 
8.797486577272865 
8.842252371008875 
8.887477398527757 
8.933167284813498 
8.97932771266814 
9.025964423418596 
9.073083217630739 
9.120689955830864 
9.168790559234605 
9.217391010483414 
9.266497354388646 
9.316115698683415 
9.36625221478226 
9.416913138548722 
9.468104771070944 
9.519833479445412 
9.57210569756884 
9.624927926938444 
9.678306737460538 
9.732248768267727 
9.786760728544644 
9.841849398362422 
9.897521629521995 
9.953784346406298 
10.010644546841515 
10.068109302967441 
10.126185762117107 
10.18488114770576 
10.244202760129259 
10.304157977672116 
10.36475425742518 
10.425999136213129 
10.487900231531876 
10.550465242496031 
10.61370195079649 
10.677618221668311 
10.742222004868953 
10.807521335667072 
10.873524335841928 
10.940239214693532 
11.007674270063719 
11.075837889368216 
11.14473855063982 
11.21438482358292 
11.284785370639344 
11.355948948065791 
11.427884407022896 
11.500600694676134 
11.57410685530865 
11.648412031446146 
11.723525464994013 
11.799456498386839 
11.876214575750378 
11.953809244076187 
12.032250154409079 
12.111547063047468 
12.191709832756867 
12.272748433996576 
12.354672946159772 
12.437493558827207 
12.521220573034505 
12.605864402553426 
12.691435575187093 
12.777944734079409 
12.86540263903883 
12.953820167876646 
13.04320831775995 
13.133578206579417 
13.224941074332124 
13.317308284519587 
13.410691325561084 
13.505101812222591 
13.600551487061384 
13.69705222188654 
13.794616019235562 
13.893255013867181 
13.992981474270675 
14.09380780419181 
14.195746544175545 
14.298810373125837 
14.403012109882596 
14.508364714816057 
14.614881291438785 
14.722575088035423 
14.831459499310522 
14.941548068054507 
15.052854486828133 
15.165392599665497 
15.27917640379595 
15.394220051385048 
15.51053785129474 
15.628144270863094 
15.747053937703702 
15.867281641525015 
15.988842335969872 
16.111751140475405 
16.236023342153523 
16.361674397692326 
16.488719935278567 
16.617175756541418 
16.74705783851789 
16.878382335639962 
17.011165581743892 
17.14542409210172 
17.281174565475474 
17.41843388619403 
17.55721912625322 
17.697547547439196 
17.839436603475374 
17.982903942193328 
18.127967407727766 
18.27464504273594 
18.422955090641764 
18.57291599790488 
18.724546416314972 
18.877865205311657 
19.032891434330182 
19.189644385173203 
19.348143554409027 
19.508408655796572 
19.67045962273729 
19.834316610754442 
20.00000000000002 
0.0 
0.13279194579635245 
0.26206489868336025 
0.38791329315490763 
0.5104290620490284 
0.6297017037052477 
0.7458183473435556 
0.858863816712689 
0.9689206920542874 
1.0760693704281428 
1.1803881244426186 
1.281953159433165 
1.380838669130661 
1.4771168898602842 
1.5708581533104904 
1.6621309379106233 
1.751001918854743 
1.8375360168081531 
1.921796445332252 
2.0038447570623408 
2.083740888672102 
2.1615432046576153 
2.2373085399729096 
2.3110922415481454 
2.3829482087208107 
2.4529289326094386 
2.5210855344586163 
2.5874678029832854 
2.652124230739637 
2.7151020495491434 
2.7764472650016274 
2.836204690062563 
2.894417977809147 
2.9511296533190796 
3.0063811447353355 
3.060212813529608 
3.1126639839865566 
3.1637729719303778 
3.2135771127146935 
3.2621127884962045 
3.3094154548120165 
3.355519666480086 
3.4004591028416664 
3.444266592364227 
3.4869741366228046 
3.528612933677297 
3.5692134008627976 
3.608805197009593 
3.6474172441090817 
3.6850777484414223 
3.7218142211803524 
3.757653498490229 
3.79262176112997 
3.8267445535782247 
3.860046802693728 
3.8925528359244934 
3.924286399079122 
3.955270673673229 
3.9855282938636485 
4.015081362982789 
4.04395146968522 
4.072159703718291 
4.09972667132828 
4.12667251031336 
4.1530169047343515 
4.178779099294022 
4.20397791339543 
4.228631754889584 
4.252758633522467 
4.276376174091242 
4.29950162931924 
4.322151892459162 
4.344343509633678 
4.366092691922442 
4.387415327204367 
4.40832699176379 
4.428842961669023 
4.44897822393159 
4.468747487454311 
4.488165193776222 
4.507245527622187 
4.526002427264906 
4.5444495947068875 
4.562600505689827 
4.580468419538694 
4.598066388847739 
4.615407269015464 
4.632503727635562 
4.649368253750644 
4.666013166975547 
4.682450626496869 
4.698692639955313 
4.714751072217322 
4.730637654042422 
4.7463639906525925 
4.761941570209939 
4.777381772208847 
4.792695875788758 
4.807895067973627 
4.822990451844103 
4.837993054648379 
4.852913835857645 
4.8677636951720356 
4.882553480482911 
4.897293995797292 
4.911996009130239 
4.926670260370933 
4.941327469128221 
4.955978342561333 
4.9706335832015185 
4.985303896770287 
5.0 
5.018204013343717 
5.036391634208416 
5.054565124728181 
5.072726745279594 
5.090878754762881 
5.109023410882862 
5.127162970429765 
5.145299689559919 
5.163435824076366 
5.181573629709437 
5.1997153623973125 
5.217863278566608 
5.236019635413032 
5.254186691182119 
5.272366705450114 
5.290561939405008 
5.308774656127784 
5.327007120873887 
5.345261601354981 
5.36354036802099 
5.381845694342502 
5.40017985709353 
5.418545136634698 
5.436943817196863 
5.4553781871652225 
5.47385053936394 
5.492363171341323 
5.51091838565558 
5.529518490161215 
5.548165798296071 
5.566862629369065 
5.585611308848664 
5.604414168652121 
5.62327354743551 
5.642191790884603 
5.6611712520066275 
5.68021429142292 
5.699323277662537 
5.71850058745685 
5.7377486060351535 
5.757069727421338 
5.77646635473165 
5.7959409004735924 
5.8154957868459745 
5.835133446040193 
5.854856320542733 
5.874666863438962 
5.89456753871824 
5.914560821580384 
5.934649198743526 
5.954835168753406 
5.975121242294138 
5.99550994250048 
6.016003805271655 
6.0366053795867645 
6.0573172278218195 
6.078141926068447 
6.099082064454295 
6.120140247465191 
6.141319094269075 
6.162621239041774 
6.1840493312946245 
6.205606036204025 
6.227294034942914 
6.249116025014252 
6.271074720586531 
6.293172852831357 
6.315413170263145 
6.337798439080971 
6.360331443512634 
6.383014986160941 
6.405851888352293 
6.428844990487599 
6.451997152395552 
6.47531125368833 
6.498790194119758 
6.522436893945967 
6.546254294288616 
6.570245357500697 
6.594413067534987 
6.618760430315181 
6.643290474109774 
6.668006249908692 
6.692910831802785 
6.718007317366164 
6.743298828041468 
6.768788509528115 
6.794479532173546 
6.820375091367546 
6.846478407939682 
6.872792728559903 
6.8993213261423545 
6.926067500252446 
6.953034577517255 
6.980225912039285 
7.007644885813628 
7.035294909148623 
7.063179421090019 
7.091301889848709 
7.119665813232109 
7.148274719079192 
7.177132165699293 
7.2062417423146625 
7.235607069506896 
7.265231799667255 
7.295119617450942 
7.325274240235382 
7.35569941858259 
7.386398936705655 
7.417376612939412 
7.448636300215353 
7.480181886540847 
7.512017295482732 
7.5441464866553005 
7.576573456212804 
7.609302237346477 
7.64233690078618 
7.675681555306696 
7.709340348238788 
7.743317465985028 
7.7776171345404785 
7.812243620018332 
7.847201229180509 
7.882494309973329 
7.918127252068288 
7.9541044874080455 
7.990430490757658 
8.027109780261135 
8.064146918003399 
8.101546510577705 
8.139313209658605 
8.177451712580496 
8.215966762921877 
8.254863151095352 
8.294145714943427 
8.33381934034025 
8.373888961799292 
8.414359563087096 
8.455236177843153 
8.496523890205955 
8.538227835445369 
8.580353200601344 
8.622905225129047 
8.665889201550563 
8.709310476113142 
8.753174449454168 
8.797486577272865 
8.842252371008875 
8.887477398527757 
8.933167284813498 
8.97932771266814 
9.025964423418596 
9.073083217630739 
9.120689955830864 
9.168790559234605 
9.217391010483414 
9.266497354388646 
9.316115698683415 
9.36625221478226 
9.416913138548722 
9.468104771070944 
9.519833479445412 
9.57210569756884 
9.624927926938444 
9.678306737460538 
9.732248768267727 
9.786760728544644 
9.841849398362422 
9.897521629521995 
9.953784346406298 
10.010644546841515 
10.068109302967441 
10.126185762117107 
10.18488114770576 
10.244202760129259 
10.304157977672116 
10.36475425742518 
10.425999136213129 
10.487900231531876 
10.550465242496031 
10.61370195079649 
10.677618221668311 
10.742222004868953 
10.807521335667072 
10.873524335841928 
10.940239214693532 
11.007674270063719 
11.075837889368216 
11.14473855063982 
11.21438482358292 
11.284785370639344 
11.355948948065791 
11.427884407022896 
11.500600694676134 
11.57410685530865 
11.648412031446146 
11.723525464994013 
11.799456498386839 
11.876214575750378 
11.953809244076187 
12.032250154409079 
12.111547063047468 
12.191709832756867 
12.272748433996576 
12.354672946159772 
12.437493558827207 
12.521220573034505 
12.605864402553426 
12.691435575187093 
12.777944734079409 
12.86540263903883 
12.953820167876646 
13.04320831775995 
13.133578206579417 
13.224941074332124 
13.317308284519587 
13.410691325561084 
13.505101812222591 
13.600551487061384 
13.69705222188654 
13.794616019235562 
13.893255013867181 
13.992981474270675 
14.09380780419181 
14.195746544175545 
14.298810373125837 
14.403012109882596 
14.508364714816057 
14.614881291438785 
14.722575088035423 
14.831459499310522 
14.941548068054507 
15.052854486828133 
15.165392599665497 
15.27917640379595 
15.394220051385048 
15.51053785129474 
15.628144270863094 
15.747053937703702 
15.867281641525015 
15.988842335969872 
16.111751140475405 
16.236023342153523 
16.361674397692326 
16.488719935278567 
16.617175756541418 
16.74705783851789 
16.878382335639962 
17.011165581743892 
17.14542409210172 
17.281174565475474 
17.41843388619403 
17.55721912625322 
17.697547547439196 
17.839436603475374 
17.982903942193328 
18.127967407727766 
18.27464504273594 
18.422955090641764 
18.57291599790488 
18.724546416314972 
18.877865205311657 
19.032891434330182 
19.189644385173203 
19.348143554409027 
19.508408655796572 
19.67045962273729 
19.834316610754442 
20.00000000000002 
0.0 
0.13279194579635245 
0.26206489868336025 
0.38791329315490763 
0.5104290620490284 
0.6297017037052477 
0.7458183473435556 
0.858863816712689 
0.9689206920542874 
1.0760693704281428 
1.1803881244426186 
1.281953159433165 
1.380838669130661 
1.4771168898602842 
1.5708581533104904 
1.6621309379106233 
1.751001918854743 
1.8375360168081531 
1.921796445332252 
2.0038447570623408 
2.083740888672102 
2.1615432046576153 
2.2373085399729096 
2.3110922415481454 
2.3829482087208107 
2.4529289326094386 
2.5210855344586163 
2.5874678029832854 
2.652124230739637 
2.7151020495491434 
2.7764472650016274 
2.836204690062563 
2.894417977809147 
2.9511296533190796 
3.0063811447353355 
3.060212813529608 
3.1126639839865566 
3.1637729719303778 
3.2135771127146935 
3.2621127884962045 
3.3094154548120165 
3.355519666480086 
3.4004591028416664 
3.444266592364227 
3.4869741366228046 
3.528612933677297 
3.5692134008627976 
3.608805197009593 
3.6474172441090817 
3.6850777484414223 
3.7218142211803524 
3.757653498490229 
3.79262176112997 
3.8267445535782247 
3.860046802693728 
3.8925528359244934 
3.924286399079122 
3.955270673673229 
3.9855282938636485 
4.015081362982789 
4.04395146968522 
4.072159703718291 
4.09972667132828 
4.12667251031336 
4.1530169047343515 
4.178779099294022 
4.20397791339543 
4.228631754889584 
4.252758633522467 
4.276376174091242 
4.29950162931924 
4.322151892459162 
4.344343509633678 
4.366092691922442 
4.387415327204367 
4.40832699176379 
4.428842961669023 
4.44897822393159 
4.468747487454311 
4.488165193776222 
4.507245527622187 
4.526002427264906 
4.5444495947068875 
4.562600505689827 
4.580468419538694 
4.598066388847739 
4.615407269015464 
4.632503727635562 
4.649368253750644 
4.666013166975547 
4.682450626496869 
4.698692639955313 
4.714751072217322 
4.730637654042422 
4.7463639906525925 
4.761941570209939 
4.777381772208847 
4.792695875788758 
4.807895067973627 
4.822990451844103 
4.837993054648379 
4.852913835857645 
4.8677636951720356 
4.882553480482911 
4.897293995797292 
4.911996009130239 
4.926670260370933 
4.941327469128221 
4.955978342561333 
4.9706335832015185 
4.985303896770287 
5.0 
5.018204013343717 
5.036391634208416 
5.054565124728181 
5.072726745279594 
5.090878754762881 
5.109023410882862 
5.127162970429765 
5.145299689559919 
5.163435824076366 
5.181573629709437 
5.1997153623973125 
5.217863278566608 
5.236019635413032 
5.254186691182119 
5.272366705450114 
5.290561939405008 
5.308774656127784 
5.327007120873887 
5.345261601354981 
5.36354036802099 
5.381845694342502 
5.40017985709353 
5.418545136634698 
5.436943817196863 
5.4553781871652225 
5.47385053936394 
5.492363171341323 
5.51091838565558 
5.529518490161215 
5.548165798296071 
5.566862629369065 
5.585611308848664 
5.604414168652121 
5.62327354743551 
5.642191790884603 
5.6611712520066275 
5.68021429142292 
5.699323277662537 
5.71850058745685 
5.7377486060351535 
5.757069727421338 
5.77646635473165 
5.7959409004735924 
5.8154957868459745 
5.835133446040193 
5.854856320542733 
5.874666863438962 
5.89456753871824 
5.914560821580384 
5.934649198743526 
5.954835168753406 
5.975121242294138 
5.99550994250048 
6.016003805271655 
6.0366053795867645 
6.0573172278218195 
6.078141926068447 
6.099082064454295 
6.120140247465191 
6.141319094269075 
6.162621239041774 
6.1840493312946245 
6.205606036204025 
6.227294034942914 
6.249116025014252 
6.271074720586531 
6.293172852831357 
6.315413170263145 
6.337798439080971 
6.360331443512634 
6.383014986160941 
6.405851888352293 
6.428844990487599 
6.451997152395552 
6.47531125368833 
6.498790194119758 
6.522436893945967 
6.546254294288616 
6.570245357500697 
6.594413067534987 
6.618760430315181 
6.643290474109774 
6.668006249908692 
6.692910831802785 
6.718007317366164 
6.743298828041468 
6.768788509528115 
6.794479532173546 
6.820375091367546 
6.846478407939682 
6.872792728559903 
6.8993213261423545 
6.926067500252446 
6.953034577517255 
6.980225912039285 
7.007644885813628 
7.035294909148623 
7.063179421090019 
7.091301889848709 
7.119665813232109 
7.148274719079192 
7.177132165699293 
7.2062417423146625 
7.235607069506896 
7.265231799667255 
7.295119617450942 
7.325274240235382 
7.35569941858259 
7.386398936705655 
7.417376612939412 
7.448636300215353 
7.480181886540847 
7.512017295482732 
7.5441464866553005 
7.576573456212804 
7.609302237346477 
7.64233690078618 
7.675681555306696 
7.709340348238788 
7.743317465985028 
7.7776171345404785 
7.812243620018332 
7.847201229180509 
7.882494309973329 
7.918127252068288 
7.9541044874080455 
7.990430490757658 
8.027109780261135 
8.064146918003399 
8.101546510577705 
8.139313209658605 
8.177451712580496 
8.215966762921877 
8.254863151095352 
8.294145714943427 
8.33381934034025 
8.373888961799292 
8.414359563087096 
8.455236177843153 
8.496523890205955 
8.538227835445369 
8.580353200601344 
8.622905225129047 
8.665889201550563 
8.709310476113142 
8.753174449454168 
8.797486577272865 
8.842252371008875 
8.887477398527757 
8.933167284813498 
8.97932771266814 
9.025964423418596 
9.073083217630739 
9.120689955830864 
9.168790559234605 
9.217391010483414 
9.266497354388646 
9.316115698683415 
9.36625221478226 
9.416913138548722 
9.468104771070944 
9.519833479445412 
9.57210569756884 
9.624927926938444 
9.678306737460538 
9.732248768267727 
9.786760728544644 
9.841849398362422 
9.897521629521995 
9.953784346406298 
10.010644546841515 
10.068109302967441 
10.126185762117107 
10.18488114770576 
10.244202760129259 
10.304157977672116 
10.36475425742518 
10.425999136213129 
10.487900231531876 
10.550465242496031 
10.61370195079649 
10.677618221668311 
10.742222004868953 
10.807521335667072 
10.873524335841928 
10.940239214693532 
11.007674270063719 
11.075837889368216 
11.14473855063982 
11.21438482358292 
11.284785370639344 
11.355948948065791 
11.427884407022896 
11.500600694676134 
11.57410685530865 
11.648412031446146 
11.723525464994013 
11.799456498386839 
11.876214575750378 
11.953809244076187 
12.032250154409079 
12.111547063047468 
12.191709832756867 
12.272748433996576 
12.354672946159772 
12.437493558827207 
12.521220573034505 
12.605864402553426 
12.691435575187093 
12.777944734079409 
12.86540263903883 
12.953820167876646 
13.04320831775995 
13.133578206579417 
13.224941074332124 
13.317308284519587 
13.410691325561084 
13.505101812222591 
13.600551487061384 
13.69705222188654 
13.794616019235562 
13.893255013867181 
13.992981474270675 
14.09380780419181 
14.195746544175545 
14.298810373125837 
14.403012109882596 
14.508364714816057 
14.614881291438785 
14.722575088035423 
14.831459499310522 
14.941548068054507 
15.052854486828133 
15.165392599665497 
15.27917640379595 
15.394220051385048 
15.51053785129474 
15.628144270863094 
15.747053937703702 
15.867281641525015 
15.988842335969872 
16.111751140475405 
16.236023342153523 
16.361674397692326 
16.488719935278567 
16.617175756541418 
16.74705783851789 
16.878382335639962 
17.011165581743892 
17.14542409210172 
17.281174565475474 
17.41843388619403 
17.55721912625322 
17.697547547439196 
17.839436603475374 
17.982903942193328 
18.127967407727766 
18.27464504273594 
18.422955090641764 
18.57291599790488 
18.724546416314972 
18.877865205311657 
19.032891434330182 
19.189644385173203 
19.348143554409027 
19.508408655796572 
19.67045962273729 
19.834316610754442 
20.00000000000002 
0.0 
0.13279194579635245 
0.26206489868336025 
0.38791329315490763 
0.5104290620490284 
0.6297017037052477 
0.7458183473435556 
0.858863816712689 
0.9689206920542874 
1.0760693704281428 
1.1803881244426186 
1.281953159433165 
1.380838669130661 
1.4771168898602842 
1.5708581533104904 
1.6621309379106233 
1.751001918854743 
1.8375360168081531 
1.921796445332252 
2.0038447570623408 
2.083740888672102 
2.1615432046576153 
2.2373085399729096 
2.3110922415481454 
2.3829482087208107 
2.4529289326094386 
2.5210855344586163 
2.5874678029832854 
2.652124230739637 
2.7151020495491434 