VARIABLES="x","y","u","v","psi","w","Hx","Hy","Mx","My","alpha","Theta","MxH" 
ZONE NODES=12640, ELEMENTS=12383, DATAPACKING=BLOCK, VARLOCATION=([1,2]=nodal,[3,4,5,6,7,8,9,10,11,12,13]=CELLCENTERED), ZONETYPE=FEQUADRILATERAL
0.0 
0.2957831806427089 0.5741148670987792 0.8360386944193197 1.0825367745959351 1.3145333790968863 1.5328984045238752 1.7384506343843595 1.9319608092097083 2.1141545165309914 2.2857149115486584 2.4472852786975583 2.599471443712173 2.742844045236367 2.8779406744952882 3.0052678910523722 3.125303122209737 3.238496453173993 3.34527231469986 3.4460310745396443 3.5411505386658284 3.630987367895833 3.71587841523069 3.796141988922153 3.8720790460042513 3.9439743207645472 4.01209739238644 4.076703695765751 4.1380354792917595 4.1963227131839895 4.251783951790661 4.304627153082081 4.355050458411766 4.403242935469079 4.449385287209178 4.4936505294184785 4.536204639456239 4.577207178604787 4.616811890361983 4.655167276919237 4.69241715598671 4.728701200053504 4.764155460104926 4.798912875760508 4.833103773745624 4.866856356565784 4.900297183215924 4.933551643727177 4.966744429330488 5.0 5.041127174386995 5.082185151165977 5.123200026047853 5.164197867348744 5.205204732558529 5.246246684902523 5.287349809906793 5.328540231977646 5.369844131005833 5.411287759006018 5.452897456802081 5.4946996707688776 5.536720969641075 5.578988061399762 5.621527810247562 5.664367253683032 5.707533619685221 5.75105434401927 5.7949570876740975 5.839269754443229 5.884020508659935 5.929237793097989 5.974950347049369 6.021187224590441 6.067977813048207 6.11535185167836 6.163339450567017 6.21197110976815 6.261277738688874 6.311290675734905 6.362041708228686 6.4135630926128435 6.465887574951797 6.5190484117445635 6.573079391062001 6.628014854021889 6.683889716615526 6.74073949189971 6.79860031256819 6.857508953916967 6.917502857217996 6.978620153516196 7.040899687864849 7.104381044014825 7.169104569573285 7.235111401647915 7.302443492992913 7.371143638673416 7.441255503265268 7.512823648607437 7.585893562124721 7.6605116857387365 7.736725445385563 7.81458328115882 7.894134678097316 7.975430197636847 8.058521509746136 8.143461425767336 8.230303931981972 8.319104223923638 8.409918741459293 8.502805204661428 8.597822650493896 8.695031470334747 8.794493448359905 8.896271800812071 9.00043121617983 9.1070378963125 9.21615959849682 9.327865678522269 9.442227134762362 9.559316653299932 9.679208654125098 9.801979338435267 9.927706737067247 10.056470760092246 10.188353247605269 10.323438021741204 10.461810939950677 10.603559949569492 10.748775143716369 10.89754881855452 11.049975531953427 11.206152163588115 11.366177976514134 11.530154680257365 11.698186495458774 11.870380220115177 12.046845297458088 12.227693885513922 12.413040928389579 12.603004229328869 12.79770452558611 12.997265565164575 13.201814185468502 13.411480393918625 13.626397450582598 13.846701952872658 14.072533922364514 14.304036893792498 14.541358006277699 14.78464809684692 15.034061796301984 15.289757627500267 15.551898106109006 15.820649843897309 16.096183654631602 16.378674662641785 16.66830241412709 16.96525099127245 17.26970912924777 17.581870336164638 17.9019330160666 18.230100595031185 18.566581650463853 18.911590043666045 19.265345055761586 19.628071527067817 20.00000000000002 0.0 0.2957831806427089 0.5741148670987792 0.8360386944193197 1.0825367745959351 1.3145333790968863 1.5328984045238752 1.7384506343843595 1.9319608092097083 2.1141545165309914 2.2857149115486584 2.4472852786975583 2.599471443712173 2.742844045236367 2.8779406744952882 3.0052678910523722 3.125303122209737 3.238496453173993 3.34527231469986 3.4460310745396443 3.5411505386658284 3.630987367895833 3.71587841523069 3.796141988922153 3.8720790460042513 3.9439743207645472 4.01209739238644 4.076703695765751 4.1380354792917595 4.1963227131839895 4.251783951790661 4.304627153082081 4.355050458411766 4.403242935469079 4.449385287209178 4.4936505294184785 4.536204639456239 4.577207178604787 4.616811890361983 4.655167276919237 4.69241715598671 4.728701200053504 4.764155460104926 4.798912875760508 4.833103773745624 4.866856356565784 4.900297183215924 4.933551643727177 4.966744429330488 5.0 5.041127174386995 5.082185151165977 5.123200026047853 5.164197867348744 5.205204732558529 5.246246684902523 5.287349809906793 5.328540231977646 5.369844131005833 5.411287759006018 5.452897456802081 5.4946996707688776 5.536720969641075 5.578988061399762 5.621527810247562 5.664367253683032 5.707533619685221 5.75105434401927 5.7949570876740975 5.839269754443229 5.884020508659935 5.929237793097989 5.974950347049369 6.021187224590441 6.067977813048207 6.11535185167836 6.163339450567017 6.21197110976815 6.261277738688874 6.311290675734905 6.362041708228686 6.4135630926128435 6.465887574951797 6.5190484117445635 6.573079391062001 6.628014854021889 6.683889716615526 6.74073949189971 6.79860031256819 6.857508953916967 6.917502857217996 6.978620153516196 7.040899687864849 7.104381044014825 7.169104569573285 7.235111401647915 7.302443492992913 7.371143638673416 7.441255503265268 7.512823648607437 7.585893562124721 7.6605116857387365 7.736725445385563 7.81458328115882 7.894134678097316 7.975430197636847 8.058521509746136 8.143461425767336 8.230303931981972 8.319104223923638 8.409918741459293 8.502805204661428 8.597822650493896 8.695031470334747 8.794493448359905 8.896271800812071 9.00043121617983 9.1070378963125 9.21615959849682 9.327865678522269 9.442227134762362 9.559316653299932 9.679208654125098 9.801979338435267 9.927706737067247 10.056470760092246 10.188353247605269 10.323438021741204 10.461810939950677 10.603559949569492 10.748775143716369 10.89754881855452 11.049975531953427 11.206152163588115 11.366177976514134 11.530154680257365 11.698186495458774 11.870380220115177 12.046845297458088 12.227693885513922 12.413040928389579 12.603004229328869 12.79770452558611 12.997265565164575 13.201814185468502 13.411480393918625 13.626397450582598 13.846701952872658 14.072533922364514 14.304036893792498 14.541358006277699 14.78464809684692 15.034061796301984 15.289757627500267 15.551898106109006 15.820649843897309 16.096183654631602 16.378674662641785 16.66830241412709 16.96525099127245 17.26970912924777 17.581870336164638 17.9019330160666 18.230100595031185 18.566581650463853 18.911590043666045 19.265345055761586 19.628071527067817 20.00000000000002 0.0 0.2957831806427089 0.5741148670987792 0.8360386944193197 1.0825367745959351 1.3145333790968863 1.5328984045238752 1.7384506343843595 1.9319608092097083 2.1141545165309914 2.2857149115486584 2.4472852786975583 2.599471443712173 2.742844045236367 2.8779406744952882 3.0052678910523722 3.125303122209737 3.238496453173993 3.34527231469986 3.4460310745396443 3.5411505386658284 3.630987367895833 3.71587841523069 3.796141988922153 3.8720790460042513 3.9439743207645472 4.01209739238644 4.076703695765751 4.1380354792917595 4.1963227131839895 4.251783951790661 4.304627153082081 4.355050458411766 4.403242935469079 4.449385287209178 4.4936505294184785 4.536204639456239 4.577207178604787 4.616811890361983 4.655167276919237 4.69241715598671 4.728701200053504 4.764155460104926 4.798912875760508 4.833103773745624 4.866856356565784 4.900297183215924 4.933551643727177 4.966744429330488 5.0 5.041127174386995 5.082185151165977 5.123200026047853 5.164197867348744 5.205204732558529 5.246246684902523 5.287349809906793 5.328540231977646 5.369844131005833 5.411287759006018 5.452897456802081 5.4946996707688776 5.536720969641075 5.578988061399762 5.621527810247562 5.664367253683032 5.707533619685221 5.75105434401927 5.7949570876740975 5.839269754443229 5.884020508659935 5.929237793097989 5.974950347049369 6.021187224590441 6.067977813048207 6.11535185167836 6.163339450567017 6.21197110976815 6.261277738688874 6.311290675734905 6.362041708228686 6.4135630926128435 6.465887574951797 6.5190484117445635 6.573079391062001 6.628014854021889 6.683889716615526 6.74073949189971 6.79860031256819 6.857508953916967 6.917502857217996 6.978620153516196 7.040899687864849 7.104381044014825 7.169104569573285 7.235111401647915 7.302443492992913 7.371143638673416 7.441255503265268 7.512823648607437 7.585893562124721 7.6605116857387365 7.736725445385563 7.81458328115882 7.894134678097316 7.975430197636847 8.058521509746136 8.143461425767336 8.230303931981972 8.319104223923638 8.409918741459293 8.502805204661428 8.597822650493896 8.695031470334747 8.794493448359905 8.896271800812071 9.00043121617983 9.1070378963125 9.21615959849682 9.327865678522269 9.442227134762362 9.559316653299932 9.679208654125098 9.801979338435267 9.927706737067247 10.056470760092246 10.188353247605269 10.323438021741204 10.461810939950677 10.603559949569492 10.748775143716369 10.89754881855452 11.049975531953427 11.206152163588115 11.366177976514134 11.530154680257365 11.698186495458774 11.870380220115177 12.046845297458088 12.227693885513922 12.413040928389579 12.603004229328869 12.79770452558611 12.997265565164575 13.201814185468502 13.411480393918625 13.626397450582598 13.846701952872658 14.072533922364514 14.304036893792498 14.541358006277699 14.78464809684692 15.034061796301984 15.289757627500267 15.551898106109006 15.820649843897309 16.096183654631602 16.378674662641785 16.66830241412709 16.96525099127245 17.26970912924777 17.581870336164638 17.9019330160666 18.230100595031185 18.566581650463853 18.911590043666045 19.265345055761586 19.628071527067817 20.00000000000002 0.0 0.2957831806427089 0.5741148670987792 0.8360386944193197 1.0825367745959351 1.3145333790968863 1.5328984045238752 1.7384506343843595 1.9319608092097083 2.1141545165309914 2.2857149115486584 2.4472852786975583 2.599471443712173 2.742844045236367 2.8779406744952882 3.0052678910523722 3.125303122209737 3.238496453173993 3.34527231469986 3.4460310745396443 3.5411505386658284 3.630987367895833 3.71587841523069 3.796141988922153 3.8720790460042513 3.9439743207645472 4.01209739238644 4.076703695765751 4.1380354792917595 4.1963227131839895 4.251783951790661 4.304627153082081 4.355050458411766 4.403242935469079 4.449385287209178 4.4936505294184785 4.536204639456239 4.577207178604787 4.616811890361983 4.655167276919237 4.69241715598671 4.728701200053504 4.764155460104926 4.798912875760508 4.833103773745624 4.866856356565784 4.900297183215924 4.933551643727177 4.966744429330488 5.0 5.041127174386995 5.082185151165977 5.123200026047853 5.164197867348744 5.205204732558529 5.246246684902523 5.287349809906793 5.328540231977646 5.369844131005833 5.411287759006018 5.452897456802081 5.4946996707688776 5.536720969641075 5.578988061399762 5.621527810247562 5.664367253683032 5.707533619685221 5.75105434401927 5.7949570876740975 5.839269754443229 5.884020508659935 5.929237793097989 5.974950347049369 6.021187224590441 6.067977813048207 6.11535185167836 6.163339450567017 6.21197110976815 6.261277738688874 6.311290675734905 6.362041708228686 6.4135630926128435 6.465887574951797 6.5190484117445635 6.573079391062001 6.628014854021889 6.683889716615526 6.74073949189971 6.79860031256819 6.857508953916967 6.917502857217996 6.978620153516196 7.040899687864849 7.104381044014825 7.169104569573285 7.235111401647915 7.302443492992913 7.371143638673416 7.441255503265268 7.512823648607437 7.585893562124721 7.6605116857387365 7.736725445385563 7.81458328115882 7.894134678097316 7.975430197636847 8.058521509746136 8.143461425767336 8.230303931981972 8.319104223923638 8.409918741459293 8.502805204661428 8.597822650493896 8.695031470334747 8.794493448359905 8.896271800812071 9.00043121617983 9.1070378963125 9.21615959849682 9.327865678522269 9.442227134762362 9.559316653299932 9.679208654125098 9.801979338435267 9.927706737067247 10.056470760092246 10.188353247605269 10.323438021741204 10.461810939950677 10.603559949569492 10.748775143716369 10.89754881855452 11.049975531953427 11.206152163588115 11.366177976514134 11.530154680257365 11.698186495458774 11.870380220115177 12.046845297458088 12.227693885513922 12.413040928389579 12.603004229328869 12.79770452558611 12.997265565164575 13.201814185468502 13.411480393918625 13.626397450582598 13.846701952872658 14.072533922364514 14.304036893792498 14.541358006277699 14.78464809684692 15.034061796301984 15.289757627500267 15.551898106109006 15.820649843897309 16.096183654631602 16.378674662641785 16.66830241412709 16.96525099127245 17.26970912924777 17.581870336164638 17.9019330160666 18.230100595031185 18.566581650463853 18.911590043666045 19.265345055761586 19.628071527067817 20.00000000000002 0.0 0.2957831806427089 0.5741148670987792 0.8360386944193197 1.0825367745959351 1.3145333790968863 1.5328984045238752 1.7384506343843595 1.9319608092097083 2.1141545165309914 2.2857149115486584 2.4472852786975583 2.599471443712173 2.742844045236367 2.8779406744952882 3.0052678910523722 3.125303122209737 3.238496453173993 3.34527231469986 3.4460310745396443 3.5411505386658284 3.630987367895833 3.71587841523069 3.796141988922153 3.8720790460042513 3.9439743207645472 4.01209739238644 4.076703695765751 4.1380354792917595 4.1963227131839895 4.251783951790661 4.304627153082081 4.355050458411766 4.403242935469079 4.449385287209178 4.4936505294184785 4.536204639456239 4.577207178604787 4.616811890361983 4.655167276919237 4.69241715598671 4.728701200053504 4.764155460104926 4.798912875760508 4.833103773745624 4.866856356565784 4.900297183215924 4.933551643727177 4.966744429330488 5.0 5.041127174386995 5.082185151165977 5.123200026047853 5.164197867348744 5.205204732558529 5.246246684902523 5.287349809906793 5.328540231977646 5.369844131005833 5.411287759006018 5.452897456802081 5.4946996707688776 5.536720969641075 5.578988061399762 5.621527810247562 5.664367253683032 5.707533619685221 5.75105434401927 5.7949570876740975 5.839269754443229 5.884020508659935 5.929237793097989 5.974950347049369 6.021187224590441 6.067977813048207 6.11535185167836 6.163339450567017 6.21197110976815 6.261277738688874 6.311290675734905 6.362041708228686 6.4135630926128435 6.465887574951797 6.5190484117445635 6.573079391062001 6.628014854021889 6.683889716615526 6.74073949189971 6.79860031256819 6.857508953916967 6.917502857217996 6.978620153516196 7.040899687864849 7.104381044014825 7.169104569573285 7.235111401647915 7.302443492992913 7.371143638673416 7.441255503265268 7.512823648607437 7.585893562124721 7.6605116857387365 7.736725445385563 7.81458328115882 7.894134678097316 7.975430197636847 8.058521509746136 8.143461425767336 8.230303931981972 8.319104223923638 8.409918741459293 8.502805204661428 8.597822650493896 8.695031470334747 8.794493448359905 8.896271800812071 9.00043121617983 9.1070378963125 9.21615959849682 9.327865678522269 9.442227134762362 9.559316653299932 9.679208654125098 9.801979338435267 9.927706737067247 10.056470760092246 10.188353247605269 10.323438021741204 10.461810939950677 10.603559949569492 10.748775143716369 10.89754881855452 11.049975531953427 11.206152163588115 11.366177976514134 11.530154680257365 11.698186495458774 11.870380220115177 12.046845297458088 12.227693885513922 12.413040928389579 12.603004229328869 12.79770452558611 12.997265565164575 13.201814185468502 13.411480393918625 13.626397450582598 13.846701952872658 14.072533922364514 14.304036893792498 14.541358006277699 14.78464809684692 15.034061796301984 15.289757627500267 15.551898106109006 15.820649843897309 16.096183654631602 16.378674662641785 16.66830241412709 16.96525099127245 17.26970912924777 17.581870336164638 17.9019330160666 18.230100595031185 18.566581650463853 18.911590043666045 19.265345055761586 19.628071527067817 20.00000000000002 0.0 0.2957831806427089 0.5741148670987792 0.8360386944193197 1.0825367745959351 1.3145333790968863 1.5328984045238752 1.7384506343843595 1.9319608092097083 2.1141545165309914 2.2857149115486584 2.4472852786975583 2.599471443712173 2.742844045236367 2.8779406744952882 3.0052678910523722 3.125303122209737 3.238496453173993 3.34527231469986 3.4460310745396443 3.5411505386658284 3.630987367895833 3.71587841523069 3.796141988922153 3.8720790460042513 3.9439743207645472 4.01209739238644 4.076703695765751 4.1380354792917595 4.1963227131839895 4.251783951790661 4.304627153082081 4.355050458411766 4.403242935469079 4.449385287209178 4.4936505294184785 4.536204639456239 4.577207178604787 4.616811890361983 4.655167276919237 4.69241715598671 4.728701200053504 4.764155460104926 4.798912875760508 4.833103773745624 4.866856356565784 4.900297183215924 4.933551643727177 4.966744429330488 5.0 5.041127174386995 5.082185151165977 5.123200026047853 5.164197867348744 5.205204732558529 5.246246684902523 5.287349809906793 5.328540231977646 5.369844131005833 5.411287759006018 5.452897456802081 5.4946996707688776 5.536720969641075 5.578988061399762 5.621527810247562 5.664367253683032 5.707533619685221 5.75105434401927 5.7949570876740975 5.839269754443229 5.884020508659935 5.929237793097989 5.974950347049369 6.021187224590441 6.067977813048207 6.11535185167836 6.163339450567017 6.21197110976815 6.261277738688874 6.311290675734905 6.362041708228686 6.4135630926128435 6.465887574951797 6.5190484117445635 6.573079391062001 6.628014854021889 6.683889716615526 6.74073949189971 6.79860031256819 6.857508953916967 6.917502857217996 6.978620153516196 7.040899687864849 7.104381044014825 7.169104569573285 7.235111401647915 7.302443492992913 7.371143638673416 7.441255503265268 7.512823648607437 7.585893562124721 7.6605116857387365 7.736725445385563 7.81458328115882 7.894134678097316 7.975430197636847 8.058521509746136 8.143461425767336 8.230303931981972 8.319104223923638 8.409918741459293 8.502805204661428 8.597822650493896 8.695031470334747 8.794493448359905 8.896271800812071 9.00043121617983 9.1070378963125 9.21615959849682 9.327865678522269 9.442227134762362 9.559316653299932 9.679208654125098 9.801979338435267 9.927706737067247 10.056470760092246 10.188353247605269 10.323438021741204 10.461810939950677 10.603559949569492 10.748775143716369 10.89754881855452 11.049975531953427 11.206152163588115 11.366177976514134 11.530154680257365 11.698186495458774 11.870380220115177 12.046845297458088 12.227693885513922 12.413040928389579 12.603004229328869 12.79770452558611 12.997265565164575 13.201814185468502 13.411480393918625 13.626397450582598 13.846701952872658 14.072533922364514 14.304036893792498 14.541358006277699 14.78464809684692 15.034061796301984 15.289757627500267 15.551898106109006 15.820649843897309 