VARIABLES="x","y","u","v","psi","w","Mx","My","alpha","Theta","MxH" 
ZONE NODES=12640, ELEMENTS=12383, DATAPACKING=BLOCK, VARLOCATION=([1,2]=nodal,[3,4,5,6,7,8,9,10,11]=CELLCENTERED), ZONETYPE=FEQUADRILATERAL
0.0 
0.3884495184973398 0.7464844818360437 1.076492120889775 1.3806727917833732 1.6610546469686494 1.9195071581163772 2.15775358098972 2.3773824454096677 2.5798581469229602 2.766530710793359 2.9386447934186095 3.0973479811908398 3.2436984421338226 3.3786719813350814 3.503168547215584 3.618018232018173 3.723986806523538 3.821780825896957 3.912052340709497 3.9954032445448533 4.072389287179885 4.143523780097093 4.209281019035894 4.270099446402854 4.326384574626548 4.3785116899487715 4.426828354679897 4.471656724602373 4.513295696973876 4.552022903452124 4.588096561229352 4.621757194719066 4.653229239274573 4.682722537632236 4.71043373905711 4.7365476105199145 4.761238268647712 4.784670340662447 4.807000062048012 4.828376318264625 4.848941637456265 4.8688331407701035 4.888183456624303 4.9071216050201265 4.9257738577946 4.944264580549539 4.962717061870574 4.981254335365079 5.0 5.023256039986618 5.046368863088463 5.069364586104494 5.092269193514075 5.115108566838659 5.137908513887134 5.160694797917875 5.183493166750455 5.206329381859912 5.229229247486446 5.252218639793436 5.275323536106735 5.298570044268268 5.321984432137114 5.345593157271401 5.369422896824555 5.393500577689689 5.417853406926181 5.442508902502842 5.4674949243923985 5.492839706052424 5.518571886328306 5.544720541814284 5.57131521970913 5.598385971203601 5.625963385437385 5.6540786240639145 5.682763456462105 5.712050295634799 5.741972234834494 5.772563084957725 5.80385741275037 5.835890579867036 5.868698782828671 5.9023190939235555 5.936789503097873 5.972148960883217 6.008437422409527 6.045695892553187 6.083966472271317 6.123292406174587 6.163718131392338 6.205289327785211 6.248052969562021 6.292057378359209 6.337352277842843 6.383988849894884 6.432019792447169 6.481499379028506 6.532483520092138 6.585029826192881 6.63919767308533 6.6950482688166835 6.752644722890011 6.812052117576101 6.87333758145448 6.936570365266704 7.001821920167622 7.069165978463046 7.13867863692505 7.210438442779052 7.284526482459823 7.361026473236736 7.44002485781178 7.521610901997226 7.6058767955833275 7.692917756510017 7.782832138460346 7.875721541997199 7.971690929368883 8.070848743113345 8.173307028594987 8.27918156061258 8.38859197422132 8.501661899916874 8.618519103334132 8.73929562961856 8.864127952633256 8.993157129170353 9.126528958340963 9.26439414632381 9.40690847665871 9.554232986277324 9.706534147470048 9.863984055994752 10.026760625539822 10.195047788761315 10.369035705121359 10.548920975762652 10.734906865661882 10.927203533313081 11.126028268200425 11.33160573632884 11.544168234089906 11.763955950749809 11.991217239856033 12.226208899869441 12.469196464338864 12.720454501946062 12.980266926760121 13.24892731905188 13.526739257030838 13.814016659879474 14.111084142472494 14.418277382181987 14.73594349818278 15.064441443686746 15.40414241154918 15.755430253705649 16.11870191491318 16.49436788128597 16.882852644132434 17.284595179617675 17.70004944479343 18.129684890555957 18.573986992111525 19.033457797548866 19.50861649513852 19.999999999999996 0.0 0.3884495184973398 0.7464844818360437 1.076492120889775 1.3806727917833732 1.6610546469686494 1.9195071581163772 2.15775358098972 2.3773824454096677 2.5798581469229602 2.766530710793359 2.9386447934186095 3.0973479811908398 3.2436984421338226 3.3786719813350814 3.503168547215584 3.618018232018173 3.723986806523538 3.821780825896957 3.912052340709497 3.9954032445448533 4.072389287179885 4.143523780097093 4.209281019035894 4.270099446402854 4.326384574626548 4.3785116899487715 4.426828354679897 4.471656724602373 4.513295696973876 4.552022903452124 4.588096561229352 4.621757194719066 4.653229239274573 4.682722537632236 4.71043373905711 4.7365476105199145 4.761238268647712 4.784670340662447 4.807000062048012 4.828376318264625 4.848941637456265 4.8688331407701035 4.888183456624303 4.9071216050201265 4.9257738577946 4.944264580549539 4.962717061870574 4.981254335365079 5.0 5.023256039986618 5.046368863088463 5.069364586104494 5.092269193514075 5.115108566838659 5.137908513887134 5.160694797917875 5.183493166750455 5.206329381859912 5.229229247486446 5.252218639793436 5.275323536106735 5.298570044268268 5.321984432137114 5.345593157271401 5.369422896824555 5.393500577689689 5.417853406926181 5.442508902502842 5.4674949243923985 5.492839706052424 5.518571886328306 5.544720541814284 5.57131521970913 5.598385971203601 5.625963385437385 5.6540786240639145 5.682763456462105 5.712050295634799 5.741972234834494 5.772563084957725 5.80385741275037 5.835890579867036 5.868698782828671 5.9023190939235555 5.936789503097873 5.972148960883217 6.008437422409527 6.045695892553187 6.083966472271317 6.123292406174587 6.163718131392338 6.205289327785211 6.248052969562021 6.292057378359209 6.337352277842843 6.383988849894884 6.432019792447169 6.481499379028506 6.532483520092138 6.585029826192881 6.63919767308533 6.6950482688166835 6.752644722890011 6.812052117576101 6.87333758145448 6.936570365266704 7.001821920167622 7.069165978463046 7.13867863692505 7.210438442779052 7.284526482459823 7.361026473236736 7.44002485781178 7.521610901997226 7.6058767955833275 7.692917756510017 7.782832138460346 7.875721541997199 7.971690929368883 8.070848743113345 8.173307028594987 8.27918156061258 8.38859197422132 8.501661899916874 8.618519103334132 8.73929562961856 8.864127952633256 8.993157129170353 9.126528958340963 9.26439414632381 9.40690847665871 9.554232986277324 9.706534147470048 9.863984055994752 10.026760625539822 10.195047788761315 10.369035705121359 10.548920975762652 10.734906865661882 10.927203533313081 11.126028268200425 11.33160573632884 11.544168234089906 11.763955950749809 11.991217239856033 12.226208899869441 12.469196464338864 12.720454501946062 12.980266926760121 13.24892731905188 13.526739257030838 13.814016659879474 14.111084142472494 14.418277382181987 14.73594349818278 15.064441443686746 15.40414241154918 15.755430253705649 16.11870191491318 16.49436788128597 16.882852644132434 17.284595179617675 17.70004944479343 18.129684890555957 18.573986992111525 19.033457797548866 19.50861649513852 19.999999999999996 0.0 0.3884495184973398 0.7464844818360437 1.076492120889775 1.3806727917833732 1.6610546469686494 1.9195071581163772 2.15775358098972 2.3773824454096677 2.5798581469229602 2.766530710793359 2.9386447934186095 3.0973479811908398 3.2436984421338226 3.3786719813350814 3.503168547215584 3.618018232018173 3.723986806523538 3.821780825896957 3.912052340709497 3.9954032445448533 4.072389287179885 4.143523780097093 4.209281019035894 4.270099446402854 4.326384574626548 4.3785116899487715 4.426828354679897 4.471656724602373 4.513295696973876 4.552022903452124 4.588096561229352 4.621757194719066 4.653229239274573 4.682722537632236 4.71043373905711 4.7365476105199145 4.761238268647712 4.784670340662447 4.807000062048012 4.828376318264625 4.848941637456265 4.8688331407701035 4.888183456624303 4.9071216050201265 4.9257738577946 4.944264580549539 4.962717061870574 4.981254335365079 5.0 5.023256039986618 5.046368863088463 5.069364586104494 5.092269193514075 5.115108566838659 5.137908513887134 5.160694797917875 5.183493166750455 5.206329381859912 5.229229247486446 5.252218639793436 5.275323536106735 5.298570044268268 5.321984432137114 5.345593157271401 5.369422896824555 5.393500577689689 5.417853406926181 5.442508902502842 5.4674949243923985 5.492839706052424 5.518571886328306 5.544720541814284 5.57131521970913 5.598385971203601 5.625963385437385 5.6540786240639145 5.682763456462105 5.712050295634799 5.741972234834494 5.772563084957725 5.80385741275037 5.835890579867036 5.868698782828671 5.9023190939235555 5.936789503097873 5.972148960883217 6.008437422409527 6.045695892553187 6.083966472271317 6.123292406174587 6.163718131392338 6.205289327785211 6.248052969562021 6.292057378359209 6.337352277842843 6.383988849894884 6.432019792447169 6.481499379028506 6.532483520092138 6.585029826192881 6.63919767308533 6.6950482688166835 6.752644722890011 6.812052117576101 6.87333758145448 6.936570365266704 7.001821920167622 7.069165978463046 7.13867863692505 7.210438442779052 7.284526482459823 7.361026473236736 7.44002485781178 7.521610901997226 7.6058767955833275 7.692917756510017 7.782832138460346 7.875721541997199 7.971690929368883 8.070848743113345 8.173307028594987 8.27918156061258 8.38859197422132 8.501661899916874 8.618519103334132 8.73929562961856 8.864127952633256 8.993157129170353 9.126528958340963 9.26439414632381 9.40690847665871 9.554232986277324 9.706534147470048 9.863984055994752 10.026760625539822 10.195047788761315 10.369035705121359 10.548920975762652 10.734906865661882 10.927203533313081 11.126028268200425 11.33160573632884 11.544168234089906 11.763955950749809 11.991217239856033 12.226208899869441 12.469196464338864 12.720454501946062 12.980266926760121 13.24892731905188 13.526739257030838 13.814016659879474 14.111084142472494 14.418277382181987 14.73594349818278 15.064441443686746 15.40414241154918 15.755430253705649 16.11870191491318 16.49436788128597 16.882852644132434 17.284595179617675 17.70004944479343 18.129684890555957 18.573986992111525 19.033457797548866 19.50861649513852 19.999999999999996 0.0 0.3884495184973398 0.7464844818360437 1.076492120889775 1.3806727917833732 1.6610546469686494 1.9195071581163772 2.15775358098972 2.3773824454096677 2.5798581469229602 2.766530710793359 2.9386447934186095 3.0973479811908398 3.2436984421338226 3.3786719813350814 3.503168547215584 3.618018232018173 3.723986806523538 3.821780825896957 3.912052340709497 3.9954032445448533 4.072389287179885 4.143523780097093 4.209281019035894 4.270099446402854 4.326384574626548 4.3785116899487715 4.426828354679897 4.471656724602373 4.513295696973876 4.552022903452124 4.588096561229352 4.621757194719066 4.653229239274573 4.682722537632236 4.71043373905711 4.7365476105199145 4.761238268647712 4.784670340662447 4.807000062048012 4.828376318264625 4.848941637456265 4.8688331407701035 4.888183456624303 4.9071216050201265 4.9257738577946 4.944264580549539 4.962717061870574 4.981254335365079 5.0 5.023256039986618 5.046368863088463 5.069364586104494 5.092269193514075 5.115108566838659 5.137908513887134 5.160694797917875 5.183493166750455 5.206329381859912 5.229229247486446 5.252218639793436 5.275323536106735 5.298570044268268 5.321984432137114 5.345593157271401 5.369422896824555 5.393500577689689 5.417853406926181 5.442508902502842 5.4674949243923985 5.492839706052424 5.518571886328306 5.544720541814284 5.57131521970913 5.598385971203601 5.625963385437385 5.6540786240639145 5.682763456462105 5.712050295634799 5.741972234834494 5.772563084957725 5.80385741275037 5.835890579867036 5.868698782828671 5.9023190939235555 5.936789503097873 5.972148960883217 6.008437422409527 6.045695892553187 6.083966472271317 6.123292406174587 6.163718131392338 6.205289327785211 6.248052969562021 6.292057378359209 6.337352277842843 6.383988849894884 6.432019792447169 6.481499379028506 6.532483520092138 6.585029826192881 6.63919767308533 6.6950482688166835 6.752644722890011 6.812052117576101 6.87333758145448 6.936570365266704 7.001821920167622 7.069165978463046 7.13867863692505 7.210438442779052 7.284526482459823 7.361026473236736 7.44002485781178 7.521610901997226 7.6058767955833275 7.692917756510017 7.782832138460346 7.875721541997199 7.971690929368883 8.070848743113345 8.173307028594987 8.27918156061258 8.38859197422132 8.501661899916874 8.618519103334132 8.73929562961856 8.864127952633256 8.993157129170353 9.126528958340963 9.26439414632381 9.40690847665871 9.554232986277324 9.706534147470048 9.863984055994752 10.026760625539822 10.195047788761315 10.369035705121359 10.548920975762652 10.734906865661882 10.927203533313081 11.126028268200425 11.33160573632884 11.544168234089906 11.763955950749809 11.991217239856033 12.226208899869441 12.469196464338864 12.720454501946062 12.980266926760121 13.24892731905188 13.526739257030838 13.814016659879474 14.111084142472494 14.418277382181987 14.73594349818278 15.064441443686746 15.40414241154918 15.755430253705649 16.11870191491318 16.49436788128597 16.882852644132434 17.284595179617675 17.70004944479343 18.129684890555957 18.573986992111525 19.033457797548866 19.50861649513852 19.999999999999996 0.0 0.3884495184973398 0.7464844818360437 1.076492120889775 1.3806727917833732 1.6610546469686494 1.9195071581163772 2.15775358098972 2.3773824454096677 2.5798581469229602 2.766530710793359 2.9386447934186095 3.0973479811908398 3.2436984421338226 3.3786719813350814 3.503168547215584 3.618018232018173 3.723986806523538 3.821780825896957 3.912052340709497 3.9954032445448533 4.072389287179885 4.143523780097093 4.209281019035894 4.270099446402854 4.326384574626548 4.3785116899487715 4.426828354679897 4.471656724602373 4.513295696973876 4.552022903452124 4.588096561229352 4.621757194719066 4.653229239274573 4.682722537632236 4.71043373905711 4.7365476105199145 4.761238268647712 4.784670340662447 4.807000062048012 4.828376318264625 4.848941637456265 4.8688331407701035 4.888183456624303 4.9071216050201265 4.9257738577946 4.944264580549539 4.962717061870574 4.981254335365079 5.0 5.023256039986618 5.046368863088463 5.069364586104494 5.092269193514075 5.115108566838659 5.137908513887134 5.160694797917875 5.183493166750455 5.206329381859912 5.229229247486446 5.252218639793436 5.275323536106735 5.298570044268268 5.321984432137114 5.345593157271401 5.369422896824555 5.393500577689689 5.417853406926181 5.442508902502842 5.4674949243923985 5.492839706052424 5.518571886328306 5.544720541814284 5.57131521970913 5.598385971203601 5.625963385437385 5.6540786240639145 5.682763456462105 5.712050295634799 5.741972234834494 5.772563084957725 5.80385741275037 5.835890579867036 5.868698782828671 5.9023190939235555 5.936789503097873 5.972148960883217 6.008437422409527 6.045695892553187 6.083966472271317 6.123292406174587 6.163718131392338 6.205289327785211 6.248052969562021 6.292057378359209 6.337352277842843 6.383988849894884 6.432019792447169 6.481499379028506 6.532483520092138 6.585029826192881 6.63919767308533 6.6950482688166835 6.752644722890011 6.812052117576101 6.87333758145448 6.936570365266704 7.001821920167622 7.069165978463046 7.13867863692505 7.210438442779052 7.284526482459823 7.361026473236736 7.44002485781178 7.521610901997226 7.6058767955833275 7.692917756510017 7.782832138460346 7.875721541997199 7.971690929368883 8.070848743113345 8.173307028594987 8.27918156061258 8.38859197422132 8.501661899916874 8.618519103334132 8.73929562961856 8.864127952633256 8.993157129170353 9.126528958340963 9.26439414632381 9.40690847665871 9.554232986277324 9.706534147470048 9.863984055994752 10.026760625539822 10.195047788761315 10.369035705121359 10.548920975762652 10.734906865661882 10.927203533313081 11.126028268200425 11.33160573632884 11.544168234089906 11.763955950749809 11.991217239856033 12.226208899869441 12.469196464338864 12.720454501946062 12.980266926760121 13.24892731905188 13.526739257030838 13.814016659879474 14.111084142472494 14.418277382181987 14.73594349818278 15.064441443686746 15.40414241154918 15.755430253705649 16.11870191491318 16.49436788128597 16.882852644132434 17.284595179617675 17.70004944479343 18.129684890555957 18.573986992111525 19.033457797548866 19.50861649513852 19.999999999999996 0.0 0.3884495184973398 0.7464844818360437 1.076492120889775 1.3806727917833732 1.6610546469686494 1.9195071581163772 2.15775358098972 2.3773824454096677 2.5798581469229602 2.766530710793359 2.9386447934186095 3.0973479811908398 3.2436984421338226 3.3786719813350814 3.503168547215584 3.618018232018173 3.723986806523538 3.821780825896957 3.912052340709497 3.9954032445448533 4.072389287179885 4.143523780097093 4.209281019035894 4.270099446402854 4.326384574626548 4.3785116899487715 4.426828354679897 4.471656724602373 4.513295696973876 4.552022903452124 4.588096561229352 4.621757194719066 4.653229239274573 4.682722537632236 4.71043373905711 4.7365476105199145 4.761238268647712 4.784670340662447 4.807000062048012 4.828376318264625 4.848941637456265 4.8688331407701035 4.888183456624303 4.9071216050201265 4.9257738577946 4.944264580549539 4.962717061870574 4.981254335365079 5.0 5.023256039986618 5.046368863088463 5.069364586104494 5.092269193514075 5.115108566838659 5.137908513887134 5.160694797917875 5.183493166750455 5.206329381859912 5.229229247486446 5.252218639793436 5.275323536106735 5.298570044268268 5.321984432137114 5.345593157271401 5.369422896824555 5.393500577689689 5.417853406926181 5.442508902502842 5.4674949243923985 5.492839706052424 5.518571886328306 5.544720541814284 5.57131521970913 5.598385971203601 5.625963385437385 5.6540786240639145 5.682763456462105 5.712050295634799 5.741972234834494 5.772563084957725 5.80385741275037 5.835890579867036 5.868698782828671 5.9023190939235555 5.936789503097873 5.972148960883217 6.008437422409527 6.045695892553187 6.083966472271317 6.123292406174587 6.163718131392338 6.205289327785211 6.248052969562021 6.292057378359209 6.337352277842843 6.383988849894884 6.432019792447169 6.481499379028506 6.532483520092138 6.585029826192881 6.63919767308533 6.6950482688166835 6.752644722890011 6.812052117576101 6.87333758145448 6.936570365266704 7.001821920167622 7.069165978463046 7.13867863692505 7.210438442779052 7.284526482459823 7.361026473236736 7.44002485781178 7.521610901997226 7.6058767955833275 7.692917756510017 7.782832138460346 7.875721541997199 7.971690929368883 8.070848743113345 8.173307028594987 8.27918156061258 8.38859197422132 8.501661899916874 8.618519103334132 8.73929562961856 8.864127952633256 8.993157129170353 9.126528958340963 9.26439414632381 9.40690847665871 9.554232986277324 9.706534147470048 9.863984055994752 10.026760625539822 10.195047788761315 10.369035705121359 10.548920975762652 10.734906865661882 10.927203533313081 11.126028268200425 11.33160573632884 11.544168234089906 11.763955950749809 11.991217239856033 12.226208899869441 12.469196464338864 12.720454501946062 12.980266926760121 13.24892731905188 13.526739257030838 13.814016659879474 14.111084142472494 14.418277382181987 14.73594349818278 