VARIABLES="x","y" 
ZONE NODES=39500, ELEMENTS=38966, DATAPACKING=BLOCK, ZONETYPE=FEQUADRILATERAL
0.0 
0.06607734174705904 
0.1314400008729537 
0.1960975421394151 
0.2600594271256478 
0.32333501561288003 
0.3859335669540158 
0.4478642414285803 
0.5091361015831986 
0.5697581135577225 
0.6297391483973076 
0.6890879833505279 
0.747813303153797 
0.8059237013022207 
0.863427681307134 
0.9203336579404349 
0.976649958465968 
1.0323848238580609 
1.0875464100074779 
1.1421427889148887 
1.1961819498720856 
1.2496718006310679 
1.302620168561237 
1.355034801794781 
1.4069233703605106 
1.4582934673062202 
1.5091526098098242 
1.5595082402793663 
1.6093677274420939 
1.658738367422758 
1.7076273848112717 
1.7560419337199247 
1.8039890988302583 
1.8514758964298013 
1.8985092754387884 
1.9450961184270188 
1.9912432426210103 
2.0369574009015907 
2.0822452827920683 
2.12711351543714 
2.1715686645726606 
2.2156172354864347 
2.2592656739701593 
2.3025203672626606 
2.3453876449845623 
2.3878737800645213 
2.4299849896571706 
2.4717274360528982 
2.513107227579598 
2.5541304194965244 
2.59480301488038 
2.635130965503768 
2.6751201727061398 
2.7147764882573586 
2.7541057152140085 
2.7931136087685813 
2.831805877091653 
2.87018818216718 
2.908266140621045 
2.9460453245429483 
2.983531262301805 
3.020729439354719 
3.0576452990497005 
3.0942842434222064 
3.130651633985643 
3.166752792515932 
3.2025930018302695 
3.2381775065601808 
3.2735115139189848 
3.308600194463785 
3.343448682852097 
3.3780620785932225 
3.412445446794481 
3.4466038189023998 
3.4805421934389935 
3.514265536733207 
3.5477787836476646 
3.581086838300802 
3.6141945747845057 
3.6471068378773586 
3.6798284437535917 
3.7123641806878553 
3.744718809755904 
3.7768970655313012 
3.8089036567782504 
3.840743267140643 
3.872420555827436 
3.903940158294449 
3.935306686922689 
3.9665247316932977 
3.997598860859219 
4.028533621613691 
4.05933354075565 
4.090003125352158 
4.120546863397938 
4.1509692244721155 
4.181274660392269 
4.211467605865889 
4.2415524791393135 
4.271533682644276 
4.301415603642124 
4.331202614865828 
4.360899075159853 
4.390509330118013 
4.42003771271937 
4.4494885439623015 
4.478866133496805 
4.508174780255143 
4.537418773080927 
4.566602391356716 
4.595729905630239 
4.624805578239311 
4.653833663935568 
4.682818410507075 
4.711764059399918 
4.740674846338878 
4.7695550019472535 
4.798408752365947 
4.82724031987189 
4.856053923495907 
4.8848537796401 
4.913644102694852 
4.942429105655532 
4.971213000739001 
5.0 
5.035817203908706 
5.071631534115439 
5.107443891979379 
5.143255178810065 
5.179066295890085 
5.214878144497746 
5.250691625929777 
5.2865076415239916 
5.322327092681988 
5.3581508808918255 
5.39397990775072 
5.429815074987728 
5.465657284486446 
5.501507438307707 
5.537366438712282 
5.573235188183591 
5.609114589450414 
5.645005545509607 
5.680908959648836 
5.716825735469304 
5.752756776908498 
5.788702988262933 
5.824665274210911 
5.860644539835301 
5.896641690646298 
5.932657632604234 
5.96869327214236 
6.004749516189671 
6.040827272193726 
6.07692744814349 
6.113050952592178 
6.1491986946801305 
6.185371584157689 
6.221570531408093 
6.257796447470394 
6.29405024406238 
6.330332833603524 
6.366645129237951 
6.4029880448574135 
6.43936249512429 
6.475769395494615 
6.512209662241113 
6.548684212476253 
6.585193964175341 
6.621739836199614 
6.658322748319372 
6.694943621237123 
6.731603376610755 
6.768302937076734 
6.80504322627332 
6.841825168863817 
6.878649690559845 
6.915517718144634 
6.952430179496351 
6.989388003611453 
7.026392120628066 
7.063443461849397 
7.100542959767168 
7.137691548085092 
7.174890161742362 
7.212139736937189 
7.249441211150362 
7.286795523168842 
7.324203613109388 
7.361666422442212 
7.39918489401469 
7.436759972075073 
7.474392602296263 
7.512083731799606 
7.549834309178731 
7.587645284523431 
7.625517609443564 
7.663452237093008 
7.701450122193643 
7.7395122210593925 
7.777639491620282 
7.815832893446546 
7.854093387772782 
7.892421937522144 
7.930819507330574 
7.969287063571079 
8.007825574378053 
8.046436009671645 
8.085119341182168 
8.123876542474555 
8.162708588972855 
8.201616457984793 
8.240601128726365 
8.279663582346473 
8.318804801951622 
8.358025772630672 
8.397327481479614 
8.436710917626433 
8.476177072255979 
8.515726938634927 
8.55536151213678 
8.595081790266903 
8.634888772687638 
8.674783461243464 
8.714766859986211 
8.754839975200328 
8.795003815428206 
8.835259391495557 
8.875607716536875 
8.916049806020906 
8.956586677776222 
8.997219352016835 
9.037948851367865 
9.078776200891296 
9.119702428111749 
9.160728563042358 
9.201855638210699 
9.243084688684755 
9.284416752098984 
9.325852868680428 
9.367394081274892 
9.40904143537319 
9.450795979137464 
9.492658763427546 
9.534630841827433 
9.576713270671771 
9.618907109072476 
9.661213418945351 
9.703633265036842 
9.746167714950829 
9.788817839175477 
9.831584711110198 
9.874469407092658 
9.917473006425867 
9.960596591405343 
10.003841247346344 
10.047208062611192 
10.090698128636667 
10.134312539961455 
10.178052394253719 
10.221918792338716 
10.265912838226495 
10.310035639139699 
10.354288305541402 
10.398671951163095 
10.443187693032684 
10.487836651502615 
10.532619950278077 
10.577538716445272 
10.62259408049978 
10.667787176375032 
10.713119141470814 
10.75859111668192 
10.80420424642686 
10.849959678676644 
10.89585856498371 
10.941902060510866 
10.988091324060388 
11.034427518103183 
11.080911808808022 
11.127545366070922 
11.174329363544572 
11.221264978667868 
11.268353392695563 
11.315595790727969 
11.362993361740813 
11.410547298615143 
11.458258798167346 
11.50612906117929 
11.554159292428519 
11.602350700718592 
11.650704498909503 
11.6992219039482 
11.747904136899209 
11.796752422975391 
11.845767991568733 
11.894952076281335 
11.944305914956427 
11.993830749709527 
12.043527826959721 
12.093398397461 
12.143443716333774 
12.193665043096424 
12.244063641697036 
12.294640780545183 
12.345397732543868 
12.396335775121546 
12.447456190264285 
12.498760264548014 
12.550249289170933 
12.60192455998597 
12.653787377533426 
12.705839047073695 
12.758080878620103 
12.8105141869719 
12.863140291747342 
12.915960517416888 
12.968976193336559 
13.022188653781368 
13.075599237978922 
13.12920929014312 
13.183020159507972 
13.237033200361575 
13.291249772080194 
13.345671239162451 
13.400298971263704 
13.455134343230476 
13.510178735135097 
13.56543353231041 
13.62090012538464 
13.676579910316407 
13.732474288429845 
13.788584666449863 
13.84491245653759 
13.90145907632585 
13.958225948954894 
14.0152145031082 
14.072426173048422 
14.129862398653493 
14.187524625452875 
14.24541430466391 
14.30353289322838 
14.361881853849138 
14.42046265502695 
14.479276771097442 
14.538325682268198 
14.597610874656029 
14.657133840324367 
14.716896077320808 
14.776899089714838 
14.837144387635652 
14.8976334873102 
14.958367911101298 
15.019349187546004 
15.080578851394037 
15.14205844364641 
15.203789511594254 
15.26577360885769 
15.328012295425 
15.390507137691845 
15.45325970850069 
15.516271587180412 
15.579544359586036 
15.64307961813862 
15.706878961865389 
15.770943996439918 
15.8352763342226 
15.899877594301161 
15.964749402531483 
16.029893391578454 
16.095311200957106 
16.161004477073845 
16.226974873267913 
16.293224049852988 
16.359753674158966 
16.426565420573915 
16.49366097058624 
16.561042012827002 
16.628710243112373 
16.696667364486366 
16.76491508726368 
16.83345512907272 
16.90228921489888 
16.97141907712788 
17.040846455589456 
17.11057309760107 
17.180600758011924 
17.250931199247113 
17.321566191352 
17.392507512036737 
17.463756946721027 
17.53531628857902 
17.607187338584517 
17.67937190555623 
17.75187180620332 
17.824688865171126 
17.897824915087114 
17.97128179660693 
18.045061358460813 
18.119165457500035 
18.193595958743707 
18.268354735425667 
18.343443669041655 
18.418864649396653 
18.494619574652443 
18.570710351375382 
18.64713889458441 
18.72390712779918 
18.801016983088562 
18.878470401119188 
18.956269331204325 
19.03441573135295 
19.112911568319007 
19.1917588176509 
19.270959463741242 
19.350515499876757 
19.430428928288485 
19.510701760202153 
19.591336015888785 
19.672333724715575 
19.75369692519694 
19.835427665045813 
19.917528001225225 
20.000000000000007 
0.0 
0.06607734174705904 
0.1314400008729537 
0.1960975421394151 
0.2600594271256478 
0.32333501561288003 
0.3859335669540158 
0.4478642414285803 
0.5091361015831986 
0.5697581135577225 
0.6297391483973076 
0.6890879833505279 
0.747813303153797 
0.8059237013022207 
0.863427681307134 
0.9203336579404349 
0.976649958465968 
1.0323848238580609 
1.0875464100074779 
1.1421427889148887 
1.1961819498720856 
1.2496718006310679 
1.302620168561237 
1.355034801794781 
1.4069233703605106 
1.4582934673062202 
1.5091526098098242 
1.5595082402793663 
1.6093677274420939 
1.658738367422758 
1.7076273848112717 
1.7560419337199247 
1.8039890988302583 
1.8514758964298013 
1.8985092754387884 
1.9450961184270188 
1.9912432426210103 
2.0369574009015907 
2.0822452827920683 
2.12711351543714 
2.1715686645726606 
2.2156172354864347 
2.2592656739701593 
2.3025203672626606 
2.3453876449845623 
2.3878737800645213 
2.4299849896571706 
2.4717274360528982 
2.513107227579598 
2.5541304194965244 
2.59480301488038 
2.635130965503768 
2.6751201727061398 
2.7147764882573586 
2.7541057152140085 
2.7931136087685813 
2.831805877091653 
2.87018818216718 
2.908266140621045 
2.9460453245429483 
2.983531262301805 
3.020729439354719 
3.0576452990497005 
3.0942842434222064 
3.130651633985643 
3.166752792515932 
3.2025930018302695 
3.2381775065601808 
3.2735115139189848 
3.308600194463785 
3.343448682852097 
3.3780620785932225 
3.412445446794481 
3.4466038189023998 
3.4805421934389935 
3.514265536733207 
3.5477787836476646 
3.581086838300802 
3.6141945747845057 
3.6471068378773586 
3.6798284437535917 
3.7123641806878553 
3.744718809755904 
3.7768970655313012 
3.8089036567782504 
3.840743267140643 
3.872420555827436 
3.903940158294449 
3.935306686922689 
3.9665247316932977 
3.997598860859219 
4.028533621613691 
4.05933354075565 
4.090003125352158 
4.120546863397938 
4.1509692244721155 
4.181274660392269 
4.211467605865889 
4.2415524791393135 
4.271533682644276 
4.301415603642124 
4.331202614865828 
4.360899075159853 
4.390509330118013 
4.42003771271937 
4.4494885439623015 
4.478866133496805 
4.508174780255143 
4.537418773080927 
4.566602391356716 
4.595729905630239 
4.624805578239311 
4.653833663935568 
4.682818410507075 
4.711764059399918 
4.740674846338878 
4.7695550019472535 
4.798408752365947 
4.82724031987189 
4.856053923495907 
4.8848537796401 
4.913644102694852 
4.942429105655532 
4.971213000739001 
5.0 
5.035817203908706 
5.071631534115439 
5.107443891979379 
5.143255178810065 
5.179066295890085 
5.214878144497746 
5.250691625929777 
5.2865076415239916 
5.322327092681988 
5.3581508808918255 
5.39397990775072 
5.429815074987728 
5.465657284486446 
5.501507438307707 
5.537366438712282 
5.573235188183591 
5.609114589450414 
5.645005545509607 
5.680908959648836 
5.716825735469304 
5.752756776908498 
5.788702988262933 
5.824665274210911 
5.860644539835301 
5.896641690646298 
5.932657632604234 
5.96869327214236 
6.004749516189671 
6.040827272193726 
6.07692744814349 
6.113050952592178 
6.1491986946801305 
6.185371584157689 
6.221570531408093 
6.257796447470394 
6.29405024406238 
6.330332833603524 
6.366645129237951 
6.4029880448574135 
6.43936249512429 
6.475769395494615 
6.512209662241113 
6.548684212476253 
6.585193964175341 
6.621739836199614 
6.658322748319372 
6.694943621237123 
6.731603376610755 
6.768302937076734 
6.80504322627332 
6.841825168863817 
6.878649690559845 
6.915517718144634 
6.952430179496351 
6.989388003611453 
7.026392120628066 
7.063443461849397 
7.100542959767168 
7.137691548085092 
7.174890161742362 
7.212139736937189 
7.249441211150362 
7.286795523168842 
7.324203613109388 
7.361666422442212 
7.39918489401469 
7.436759972075073 
7.474392602296263 
7.512083731799606 
7.549834309178731 
7.587645284523431 
7.625517609443564 
7.663452237093008 
7.701450122193643 
7.7395122210593925 
7.777639491620282 
7.815832893446546 
7.854093387772782 
7.892421937522144 
7.930819507330574 
7.969287063571079 
8.007825574378053 
8.046436009671645 
8.085119341182168 
8.123876542474555 
8.162708588972855 
8.201616457984793 
8.240601128726365 
8.279663582346473 
8.318804801951622 
8.358025772630672 
8.397327481479614 
8.436710917626433 
8.476177072255979 
8.515726938634927 
8.55536151213678 
8.595081790266903 
8.634888772687638 
8.674783461243464 
8.714766859986211 
8.754839975200328 
8.795003815428206 
8.835259391495557 
8.875607716536875 
8.916049806020906 
8.956586677776222 
8.997219352016835 
9.037948851367865 
9.078776200891296 
9.119702428111749 
9.160728563042358 
9.201855638210699 
9.243084688684755 
9.284416752098984 
9.325852868680428 
9.367394081274892 
9.40904143537319 
9.450795979137464 
9.492658763427546 
9.534630841827433 
9.576713270671771 
9.618907109072476 
9.661213418945351 
9.703633265036842 
9.746167714950829 
9.788817839175477 
9.831584711110198 
9.874469407092658 
9.917473006425867 
9.960596591405343 
10.003841247346344 
10.047208062611192 
10.090698128636667 
10.134312539961455 
10.178052394253719 
10.221918792338716 
10.265912838226495 
10.310035639139699 
10.354288305541402 
10.398671951163095 
10.443187693032684 
10.487836651502615 
10.532619950278077 
10.577538716445272 
10.62259408049978 
10.667787176375032 
10.713119141470814 
10.75859111668192 
10.80420424642686 
10.849959678676644 
10.89585856498371 
10.941902060510866 
10.988091324060388 
11.034427518103183 
11.080911808808022 
11.127545366070922 
11.174329363544572 
11.221264978667868 
11.268353392695563 
11.315595790727969 
11.362993361740813 
11.410547298615143 
11.458258798167346 
11.50612906117929 
11.554159292428519 
11.602350700718592 
11.650704498909503 
11.6992219039482 
11.747904136899209 
11.796752422975391 
11.845767991568733 
11.894952076281335 
11.944305914956427 
11.993830749709527 
12.043527826959721 
12.093398397461 
12.143443716333774 
12.193665043096424 
12.244063641697036 
12.294640780545183 
12.345397732543868 
12.396335775121546 
12.447456190264285 
12.498760264548014 
12.550249289170933 
12.60192455998597 
12.653787377533426 
12.705839047073695 
12.758080878620103 
12.8105141869719 
12.863140291747342 
12.915960517416888 
12.968976193336559 
13.022188653781368 
13.075599237978922 
13.12920929014312 
13.183020159507972 
13.237033200361575 
13.291249772080194 
13.345671239162451 
13.400298971263704 
13.455134343230476 
13.510178735135097 
13.56543353231041 
13.62090012538464 
13.676579910316407 
13.732474288429845 
13.788584666449863 
13.84491245653759 
13.90145907632585 
13.958225948954894 
14.0152145031082 
14.072426173048422 
14.129862398653493 
14.187524625452875 
14.24541430466391 
14.30353289322838 
14.361881853849138 
14.42046265502695 
14.479276771097442 
14.538325682268198 
14.597610874656029 
14.657133840324367 
14.716896077320808 
14.776899089714838 
14.837144387635652 
14.8976334873102 
14.958367911101298 
15.019349187546004 
15.080578851394037 
15.14205844364641 
15.203789511594254 
15.26577360885769 
15.328012295425 
15.390507137691845 
15.45325970850069 
15.516271587180412 
15.579544359586036 
15.64307961813862 
15.706878961865389 
15.770943996439918 
15.8352763342226 
15.899877594301161 
15.964749402531483 
16.029893391578454 
16.095311200957106 
16.161004477073845 
16.226974873267913 
16.293224049852988 
16.359753674158966 
16.426565420573915 
16.49366097058624 
16.561042012827002 
16.628710243112373 
16.696667364486366 
16.76491508726368 
16.83345512907272 
16.90228921489888 
16.97141907712788 
17.040846455589456 
17.11057309760107 
17.180600758011924 
17.250931199247113 
17.321566191352 
17.392507512036737 
17.463756946721027 
17.53531628857902 
17.607187338584517 
17.67937190555623 
17.75187180620332 
17.824688865171126 
17.897824915087114 
17.97128179660693 
18.045061358460813 
18.119165457500035 
18.193595958743707 
18.268354735425667 
18.343443669041655 
18.418864649396653 
18.494619574652443 
18.570710351375382 
18.64713889458441 
18.72390712779918 
18.801016983088562 
18.878470401119188 
18.956269331204325 
19.03441573135295 
19.112911568319007 
19.1917588176509 
19.270959463741242 
19.350515499876757 
19.430428928288485 
19.510701760202153 
19.591336015888785 
19.672333724715575 
19.75369692519694 
19.835427665045813 
19.917528001225225 
20.000000000000007 
0.0 
0.06607734174705904 
0.1314400008729537 
0.1960975421394151 
0.2600594271256478 
0.32333501561288003 
0.3859335669540158 
0.4478642414285803 
0.5091361015831986 
0.5697581135577225 
0.6297391483973076 
0.6890879833505279 
0.747813303153797 
0.8059237013022207 
0.863427681307134 
0.9203336579404349 
0.976649958465968 
1.0323848238580609 
1.0875464100074779 
1.1421427889148887 
1.1961819498720856 
1.2496718006310679 
1.302620168561237 
1.355034801794781 
1.4069233703605106 
1.4582934673062202 
1.5091526098098242 
1.5595082402793663 
1.6093677274420939 
1.658738367422758 
1.7076273848112717 
1.7560419337199247 
1.8039890988302583 
1.8514758964298013 
1.8985092754387884 
1.9450961184270188 
1.9912432426210103 
2.0369574009015907 
2.0822452827920683 
2.12711351543714 
2.1715686645726606 
2.2156172354864347 
2.2592656739701593 
2.3025203672626606 
2.3453876449845623 
2.3878737800645213 
2.4299849896571706 
2.4717274360528982 
2.513107227579598 
2.5541304194965244 
2.59480301488038 
2.635130965503768 
2.6751201727061398 
2.7147764882573586 
2.7541057152140085 
2.7931136087685813 
2.831805877091653 
2.87018818216718 
2.908266140621045 
2.9460453245429483 
2.983531262301805 
3.020729439354719 
3.0576452990497005 
3.0942842434222064 
3.130651633985643 
3.166752792515932 
3.2025930018302695 
3.2381775065601808 
3.2735115139189848 
3.308600194463785 
3.343448682852097 
3.3780620785932225 
3.412445446794481 
3.4466038189023998 
3.4805421934389935 
3.514265536733207 
3.5477787836476646 
3.581086838300802 
3.6141945747845057 
3.6471068378773586 
3.6798284437535917 
3.7123641806878553 
3.744718809755904 
3.7768970655313012 
3.8089036567782504 
3.840743267140643 
3.872420555827436 
3.903940158294449 
3.935306686922689 
3.9665247316932977 
3.997598860859219 
4.028533621613691 
4.05933354075565 
4.090003125352158 
4.120546863397938 
4.1509692244721155 
4.181274660392269 
4.211467605865889 
4.2415524791393135 
4.271533682644276 
4.301415603642124 
4.331202614865828 
4.360899075159853 
4.390509330118013 
4.42003771271937 
4.4494885439623015 
4.478866133496805 
4.508174780255143 
4.537418773080927 
4.566602391356716 
4.595729905630239 
4.624805578239311 
4.653833663935568 
4.682818410507075 
4.711764059399918 
4.740674846338878 
4.7695550019472535 
4.798408752365947 
4.82724031987189 
4.856053923495907 
4.8848537796401 
4.913644102694852 
4.942429105655532 
4.971213000739001 
5.0 
5.035817203908706 
5.071631534115439 
5.107443891979379 
5.143255178810065 
5.179066295890085 
5.214878144497746 
5.250691625929777 
5.2865076415239916 
5.322327092681988 
5.3581508808918255 
5.39397990775072 
5.429815074987728 
5.465657284486446 
5.501507438307707 
5.537366438712282 
5.573235188183591 
5.609114589450414 
5.645005545509607 
5.680908959648836 
5.716825735469304 
5.752756776908498 
5.788702988262933 
5.824665274210911 
5.860644539835301 
5.896641690646298 
5.932657632604234 
5.96869327214236 
6.004749516189671 
6.040827272193726 
6.07692744814349 
6.113050952592178 
6.1491986946801305 
6.185371584157689 
6.221570531408093 
6.257796447470394 
6.29405024406238 
6.330332833603524 
6.366645129237951 
6.4029880448574135 
6.43936249512429 
6.475769395494615 
6.512209662241113 
6.548684212476253 
6.585193964175341 
6.621739836199614 
6.658322748319372 
6.694943621237123 
6.731603376610755 
6.768302937076734 
6.80504322627332 
6.841825168863817 
6.878649690559845 
6.915517718144634 
6.952430179496351 
6.989388003611453 
7.026392120628066 
7.063443461849397 
7.100542959767168 
7.137691548085092 
7.174890161742362 
7.212139736937189 
7.249441211150362 
7.286795523168842 
7.324203613109388 
7.361666422442212 
7.39918489401469 
7.436759972075073 
7.474392602296263 
7.512083731799606 
7.549834309178731 
7.587645284523431 
7.625517609443564 
7.663452237093008 
7.701450122193643 
7.7395122210593925 
7.777639491620282 
7.815832893446546 
7.854093387772782 
7.892421937522144 
7.930819507330574 
7.969287063571079 
8.007825574378053 
8.046436009671645 
8.085119341182168 
8.123876542474555 
8.162708588972855 
8.201616457984793 
8.240601128726365 
8.279663582346473 
8.318804801951622 
8.358025772630672 
8.397327481479614 
8.436710917626433 
8.476177072255979 
8.515726938634927 
8.55536151213678 
8.595081790266903 
8.634888772687638 
8.674783461243464 
8.714766859986211 
8.754839975200328 
8.795003815428206 
8.835259391495557 
8.875607716536875 
8.916049806020906 
8.956586677776222 
8.997219352016835 
9.037948851367865 
9.078776200891296 
9.119702428111749 
9.160728563042358 
9.201855638210699 
9.243084688684755 
9.284416752098984 
9.325852868680428 
9.367394081274892 
9.40904143537319 
9.450795979137464 
9.492658763427546 
9.534630841827433 
9.576713270671771 
9.618907109072476 
9.661213418945351 
9.703633265036842 
9.746167714950829 
9.788817839175477 
9.831584711110198 
9.874469407092658 
9.917473006425867 
9.960596591405343 
10.003841247346344 
10.047208062611192 
10.090698128636667 
10.134312539961455 
10.178052394253719 
10.221918792338716 
10.265912838226495 
10.310035639139699 
10.354288305541402 
10.398671951163095 
10.443187693032684 
10.487836651502615 
10.532619950278077 
10.577538716445272 
10.62259408049978 
10.667787176375032 
10.713119141470814 
10.75859111668192 
10.80420424642686 
10.849959678676644 
10.89585856498371 
10.941902060510866 
10.988091324060388 
11.034427518103183 
11.080911808808022 
11.127545366070922 
11.174329363544572 
11.221264978667868 
11.268353392695563 
11.315595790727969 
11.362993361740813 
11.410547298615143 
11.458258798167346 
11.50612906117929 
11.554159292428519 
11.602350700718592 
11.650704498909503 
11.6992219039482 
11.747904136899209 
11.796752422975391 
11.845767991568733 
11.894952076281335 
11.944305914956427 
11.993830749709527 
12.043527826959721 
12.093398397461 
12.143443716333774 
12.193665043096424 
12.244063641697036 
12.294640780545183 
12.345397732543868 
12.396335775121546 
12.447456190264285 
12.498760264548014 
12.550249289170933 
12.60192455998597 
12.653787377533426 
12.705839047073695 
12.758080878620103 
12.8105141869719 
12.863140291747342 
12.915960517416888 
12.968976193336559 
13.022188653781368 
13.075599237978922 
13.12920929014312 
13.183020159507972 
13.237033200361575 
13.291249772080194 
13.345671239162451 
13.400298971263704 
13.455134343230476 
13.510178735135097 
13.56543353231041 
13.62090012538464 
13.676579910316407 
13.732474288429845 
13.788584666449863 
13.84491245653759 
13.90145907632585 
13.958225948954894 
14.0152145031082 
14.072426173048422 
14.129862398653493 
14.187524625452875 
14.24541430466391 
14.30353289322838 
14.361881853849138 
14.42046265502695 
14.479276771097442 
14.538325682268198 
14.597610874656029 
14.657133840324367 
14.716896077320808 
14.776899089714838 
14.837144387635652 
14.8976334873102 
14.958367911101298 
15.019349187546004 
15.080578851394037 
15.14205844364641 
15.203789511594254 
15.26577360885769 
15.328012295425 
15.390507137691845 
15.45325970850069 
15.516271587180412 
15.579544359586036 
15.64307961813862 
15.706878961865389 
15.770943996439918 
15.8352763342226 
15.899877594301161 
15.964749402531483 
16.029893391578454 
16.095311200957106 
16.161004477073845 
16.226974873267913 
16.293224049852988 
16.359753674158966 
16.426565420573915 
16.49366097058624 
16.561042012827002 
16.628710243112373 
16.696667364486366 
16.76491508726368 
16.83345512907272 
16.90228921489888 
16.97141907712788 
17.040846455589456 
17.11057309760107 
17.180600758011924 
17.250931199247113 
17.321566191352 
17.392507512036737 
17.463756946721027 
17.53531628857902 
17.607187338584517 
17.67937190555623 
17.75187180620332 
17.824688865171126 
17.897824915087114 
17.97128179660693 
18.045061358460813 
18.119165457500035 
18.193595958743707 
18.268354735425667 
18.343443669041655 
18.418864649396653 
18.494619574652443 
18.570710351375382 
18.64713889458441 
18.72390712779918 
18.801016983088562 
18.878470401119188 
18.956269331204325 
19.03441573135295 
19.112911568319007 
19.1917588176509 
19.270959463741242 
19.350515499876757 
19.430428928288485 
19.510701760202153 
19.591336015888785 
19.672333724715575 
19.75369692519694 
19.835427665045813 
19.917528001225225 
20.000000000000007 
0.0 
0.06607734174705904 
0.1314400008729537 
0.1960975421394151 
0.2600594271256478 
0.32333501561288003 
0.3859335669540158 
0.4478642414285803 
0.5091361015831986 
0.5697581135577225 
0.6297391483973076 
0.6890879833505279 
0.747813303153797 
0.8059237013022207 
0.863427681307134 
0.9203336579404349 
0.976649958465968 
1.0323848238580609 
1.0875464100074779 
1.1421427889148887 
1.1961819498720856 
1.2496718006310679 
1.302620168561237 
1.355034801794781 
1.4069233703605106 
1.4582934673062202 
1.5091526098098242 
1.5595082402793663 
1.6093677274420939 
1.658738367422758 
1.7076273848112717 
1.7560419337199247 
1.8039890988302583 
1.8514758964298013 
1.8985092754387884 
1.9450961184270188 
1.9912432426210103 
2.0369574009015907 
2.0822452827920683 
2.12711351543714 
2.1715686645726606 
2.2156172354864347 
2.2592656739701593 
2.3025203672626606 
2.3453876449845623 
2.3878737800645213 
2.4299849896571706 
2.4717274360528982 
2.513107227579598 
2.5541304194965244 
2.59480301488038 
2.635130965503768 
2.6751201727061398 
2.7147764882573586 
2.7541057152140085 
2.7931136087685813 
2.831805877091653 
2.87018818216718 
2.908266140621045 
2.9460453245429483 
2.983531262301805 
3.020729439354719 
3.0576452990497005 
3.0942842434222064 
3.130651633985643 
3.166752792515932 
3.2025930018302695 
3.2381775065601808 
3.2735115139189848 
3.308600194463785 
3.343448682852097 
3.3780620785932225 
3.412445446794481 
3.4466038189023998 
3.4805421934389935 
3.514265536733207 
3.5477787836476646 
3.581086838300802 
3.6141945747845057 
3.6471068378773586 
3.6798284437535917 
3.7123641806878553 
3.744718809755904 
3.7768970655313012 
3.8089036567782504 
3.840743267140643 
3.872420555827436 
3.903940158294449 
3.935306686922689 
3.9665247316932977 
3.997598860859219 
4.028533621613691 
4.05933354075565 
4.090003125352158 
4.120546863397938 
4.1509692244721155 
4.181274660392269 
4.211467605865889 
4.2415524791393135 
4.271533682644276 
4.301415603642124 
4.331202614865828 
4.360899075159853 
4.390509330118013 
4.42003771271937 
4.4494885439623015 
4.478866133496805 
4.508174780255143 
4.537418773080927 
4.566602391356716 
4.595729905630239 
4.624805578239311 
4.653833663935568 
4.682818410507075 
4.711764059399918 
4.740674846338878 
4.7695550019472535 
4.798408752365947 
4.82724031987189 
4.856053923495907 
4.8848537796401 
4.913644102694852 
4.942429105655532 
4.971213000739001 
5.0 
5.035817203908706 
5.071631534115439 
5.107443891979379 
5.143255178810065 
5.179066295890085 
5.214878144497746 
5.250691625929777 
5.2865076415239916 
5.322327092681988 
5.3581508808918255 
5.39397990775072 
5.429815074987728 
5.465657284486446 
5.501507438307707 
5.537366438712282 
5.573235188183591 
5.609114589450414 
5.645005545509607 
5.680908959648836 
5.716825735469304 
5.752756776908498 
5.788702988262933 
5.824665274210911 
5.860644539835301 
5.896641690646298 
5.932657632604234 
5.96869327214236 
6.004749516189671 
6.040827272193726 
6.07692744814349 
6.113050952592178 
6.1491986946801305 
6.185371584157689 
6.221570531408093 
6.257796447470394 
6.29405024406238 
6.330332833603524 
6.366645129237951 
6.4029880448574135 
6.43936249512429 
6.475769395494615 
6.512209662241113 
6.548684212476253 
6.585193964175341 
6.621739836199614 
6.658322748319372 
6.694943621237123 
6.731603376610755 
6.768302937076734 
6.80504322627332 
6.841825168863817 
6.878649690559845 
6.915517718144634 
6.952430179496351 
6.989388003611453 
7.026392120628066 
7.063443461849397 
7.100542959767168 
7.137691548085092 
7.174890161742362 
7.212139736937189 
7.249441211150362 
7.286795523168842 
7.324203613109388 
7.361666422442212 
7.39918489401469 
7.436759972075073 
7.474392602296263 
7.512083731799606 
7.549834309178731 
7.587645284523431 
7.625517609443564 
7.663452237093008 
7.701450122193643 
7.7395122210593925 
7.777639491620282 
7.815832893446546 
7.854093387772782 
7.892421937522144 
7.930819507330574 
7.969287063571079 
8.007825574378053 
8.046436009671645 
8.085119341182168 
8.123876542474555 
8.162708588972855 
8.201616457984793 
8.240601128726365 
8.279663582346473 
8.318804801951622 
8.358025772630672 
8.397327481479614 
8.436710917626433 
8.476177072255979 
8.515726938634927 
8.55536151213678 
8.595081790266903 
8.634888772687638 
8.674783461243464 
8.714766859986211 
8.754839975200328 
8.795003815428206 
8.835259391495557 
8.875607716536875 
8.916049806020906 
8.956586677776222 
8.997219352016835 
9.037948851367865 
9.078776200891296 
9.119702428111749 
9.160728563042358 
9.201855638210699 
9.243084688684755 
9.284416752098984 
9.325852868680428 
9.367394081274892 
9.40904143537319 
9.450795979137464 
9.492658763427546 
9.534630841827433 
9.576713270671771 
9.618907109072476 
9.661213418945351 
9.703633265036842 
9.746167714950829 
9.788817839175477 
9.831584711110198 
9.874469407092658 
9.917473006425867 
9.960596591405343 
10.003841247346344 
10.047208062611192 
10.090698128636667 
10.134312539961455 
10.178052394253719 
10.221918792338716 
10.265912838226495 
10.310035639139699 
10.354288305541402 
10.398671951163095 
10.443187693032684 
10.487836651502615 
10.532619950278077 
10.577538716445272 
10.62259408049978 
10.667787176375032 
10.713119141470814 
10.75859111668192 
10.80420424642686 
10.849959678676644 
10.89585856498371 