VARIABLES="x","y" 
ZONE NODES=67015, ELEMENTS=66320, DATAPACKING=BLOCK, ZONETYPE=FEQUADRILATERAL
0.0 
0.050955463979516225 
0.10148567700651334 
0.15159502524671709 
0.20128785833358975 
0.25056848974590373 
0.29944119718215934 
0.34791022293189133 
0.3959797742439264 
0.443654023691578 
0.4909371095348325 
0.5378331360795698 
0.5843461740338265 
0.630480260861142 
0.6762394011310215 
0.7216275668665526 
0.7666486978891767 
0.8113067021606826 
0.8556054561224311 
0.8995488050318317 
0.9431405632961312 
0.9863845148035146 
1.0292844132515473 
1.071843982473025 
1.114066916759188 
1.1559568811804204 
1.1975175119043744 
1.2387524165116068 
1.2796651743087186 
1.3202593366390571 
1.3605384271909826 
1.400505942303731 
1.4401653512709007 
1.4795200966416115 
1.5185735945193164 
1.557329234858333 
1.5957903817580967 
1.6339603737551802 
1.6718425241130879 
1.7094401211098478 
1.7467564283234558 
1.7837946849151542 
1.8205581059106004 
1.8570498824789494 
1.893273182209846 
1.9292311493883858 
1.964926905268043 
2.000363548341614 
2.0355441546101662 
2.0704717778500443 
2.1051494498779517 
2.139580180814117 
2.1737669593435847 
2.2077127529756337 
2.2414205083013763 
2.274893151249522 
2.3081335873403592 
2.341144701937963 
2.373929360500656 
2.40649040882973 
2.438830673316479 
2.47095296118753 
2.5028600607485254 
2.5345547416261507 
2.566039755008548 
2.5973178338841243 
2.6283916932787883 
2.6592640304916153 
2.6899375253289883 
2.7204148403372037 
2.7506986210335964 
2.7807914961361724 
2.8106960777917913 
2.8404149618029098 
2.8699507278528986 
2.8993059397299747 
2.9284831455497384 
2.9574848779763596 
2.9863136544424216 
3.0149719773674404 
3.0434623343750786 
3.0717871985090843 
3.099949028447953 
3.127950268718352 
3.1557933499073076 
3.183480688873191 
3.211014688955508 
3.238397740183512 
3.2656322194836687 
3.2927204908859817 
3.3196649057291925 
3.3464678028648853 
3.3731315088605074 
3.39965833820132 
3.4260505934913015 
3.4523105656530237 
3.4784405341265066 
3.50444276706708 
3.5303195215422694 
3.5560730437277144 
3.5817055691021404 
3.6072193226414084 
3.6326165190116457 
3.657899362761489 
3.683070048513441 
3.708130761154375 
3.733083676025184 
3.7579309591096104 
3.782674767222259 
3.8073172481958113 
3.8318605410674675 
3.856306776264619 
3.880658075789776 
3.9049165534047643 
3.929084314814202 
3.9531634578482864 
3.9771560726448874 
4.001064241830978 
4.024890040703413 
4.048635537409073 
4.072302793124379 
4.095893862234214 
4.119410792510249 
4.142855625288693 
4.166230395647486 
4.189537132582954 
4.2127778591859295 
4.235954592817357 
4.2590693452834145 
4.282124123010135 
4.305120927217578 
4.328061754093534 
4.3509485949668045 
4.373783436480052 
4.396568260762246 
4.419305045600722 
4.441995764612852 
4.464642387417365 
4.487246879805316 
4.509811203910717 
4.532337318380862 
4.55482717854634 
4.577282736590761 
4.5997059417202175 
4.622098740332474 
4.644463076185925 
4.666800890568316 
4.689114122465256 
4.711404708728519 
4.733674584244181 
4.7559256821005595 
4.778159933756024 
4.800379269206641 
4.822585617153712 
4.844780905171184 
4.866967059872972 
4.889146007080193 
4.911319671988331 
4.933489979334356 
4.955658853563787 
4.9778282189977485 
5.0 
5.027530735638705 
5.0550596502731455 
5.082587153232725 
5.1101136538258585 
5.137639561346053 
5.165165285078 
5.192691234303657 
5.220217818308335 
5.247745446386783 
5.275274527849274 
5.302805472027694 
5.330338688281622 
5.357874586004424 
5.385413574629335 
5.412956063635549 
5.440502462554308 
5.468053180974993 
5.495608628551206 
5.523169215006873 
5.550735350142328 
5.5783074438404086 
5.60588590607255 
5.633471146904884 
5.661063576504332 
5.688663605144705 
5.716271643212807 
5.743888101214535 
5.771513389780978 
5.799147919674532 
5.826792101795001 
5.85444634718571 
5.882111067039614 
5.909786672705414 
5.937473575693673 
5.965172187682935 
5.992882920525846 
6.020606186255275 
6.048342397090449 
6.076091965443074 
6.103855303923466 
6.1316328253466965 
6.15942494273872 
6.187232069342522 
6.215054618624258 
6.2428930042794075 
6.27074764023892 
6.2986189406753725 
6.326507320009129 
6.354413192914498 
6.382336974325904 
6.410279079444051 
6.4382399237421035 
6.466219922971857 
6.494219493169925 
6.522239050663921 
6.5502790120786525 
6.578339794342316 
6.606421814692692 
6.634525490683353 
6.662651240189869 
6.6907994814160245 
6.718970632900036 
6.74716511352077 
6.775383342503982 
6.803625739428536 
6.831892724232659 
6.86018471722017 
6.888502139066739 
6.9168454108261415 
6.945214953936514 
6.9736111902266265 
7.002034541922149 
7.030485431651934 
7.0589642824542995 
7.087471517783318 
7.116007561515114 
7.144572837954165 
7.173167771839612 
7.201792788351575 
7.230448313117476 
7.259134772218365 
7.287852592195257 
7.316602200055476 
7.345384023278996 
7.374198489824812 
7.40304602813729 
7.431927067152544 
7.460842036304809 
7.489791365532839 
7.518775485286277 
7.547794826532078 
7.576849820760907 
7.605940899993552 
7.6350684967873566 
7.664233044242642 
7.693434976009154 
7.722674726292508 
7.751952729860644 
7.781269422050297 
7.81062523877346 
7.840020616523875 
7.8694559923835214 
7.898931804029108 
7.928448489738595 
7.958006488397691 
7.9876062395063965 
8.017248183185533 
8.046932760183282 
8.076660411881749 
8.10643158030351 
8.136246708118206 
8.166106238649107 
8.196010615879707 
8.225960284460342 
8.25595568971477 
8.285997277646826 
8.316085494947032 
8.346220788999243 
8.376403607887312 
8.406634400401726 
8.43691361604631 
8.467241705044888 
8.497619118347988 
8.528046307639547 
8.558523725343619 
8.589051824631111 
8.61963105942652 
8.650261884414675 
8.680944755047513 
8.711680127550828 
8.742468458931077 
8.77331020698217 
8.804205830292261 
8.835155788250594 
8.8661605410543 
8.897220549715282 
8.92833627606702 
8.95950818277149 
8.990736733325996 
9.022022392070102 
9.053365624192498 
9.08476689573796 
9.116226673614232 
9.147745425599016 
9.179323620346882 
9.210961727396278 
9.242660217176478 
9.274419561014602 
9.306240231142606 
9.338122700704313 
9.370067443762448 
9.40207493530568 
9.434145651255701 
9.466280068474276 
9.49847866477036 
9.530741918907188 
9.563070310609392 
9.59546432057015 
9.627924430458314 
9.660451122925583 
9.693044881613677 
9.725706191161528 
9.75843553721249 
9.79123340642155 
9.824100286462578 
9.857036666035565 
9.890043034873898 
9.923119883751642 
9.95626770449083 
9.989486989968782 
10.022778234125436 
10.056141931970686 
10.089578579591741 
10.123088674160513 
10.156672713941 
10.19033119829669 
10.224064627698002 
10.257873503729712 
10.291758329098421 
10.325719607640021 
10.359757844327202 
10.393873545276936 
10.42806721775803 
10.462339370198645 
10.496690512193872 
10.5311211545133 
10.565631809108623 
10.600222989121228 
10.634895208889851 
10.669648983958211 
10.704484831082684 
10.739403268239965 
10.77440481463481 
10.80948999070771 
10.844659318142668 
10.879913319874925 
10.915252520098768 
10.950677444275286 
10.98618861914022 
11.021786572711772 
11.057471834298465 
11.093244934507002 
11.129106405250184 
11.165056779754776 
11.201096592569481 
11.237226379572855 
11.273446677981289 
11.309758026356988 
11.346160964616 
11.38265603403622 
11.41924377726545 
11.455924738329458 
11.492699462640086 
11.52956849700335 
11.566532389627554 
11.603591690131466 
11.640746949552483 
11.67799872035482 
11.715347556437722 
11.75279401314371 
11.790338647266827 
11.82798201706093 
11.865724682247983 
11.903567204026377 
11.941510145079274 
11.979554069582989 
12.017699543215357 
12.055947133164159 
12.09429740813555 
12.132750938362515 
12.171308295613343 
12.209970053200152 
12.24873678598738 
12.28760907040035 
12.326587484433844 
12.365672607660702 
12.404865021240411 
12.444165307927776 
12.483574052081579 
12.52309183967326 
12.56271925829563 
12.602456897171614 
12.64230534716301 
12.682265200779288 
12.722337052186354 
12.762521497215454 
12.802819133371969 
12.84323055984434 
12.883756377512961 
12.924397188959126 
12.965153598473961 
13.006026212067441 
13.047015637477385 
13.088122484178504 
13.129347363391428 
13.170690888091857 
13.212153673019612 
13.253736334687815 
13.295439491392038 
13.33726376321951 
13.379209772058317 
13.421278141606676 
13.463469497382183 
13.505784466731138 
13.548223678837832 
13.59078776473397 
13.633477357307987 
13.676293091314488 
13.719235603383689 
13.762305532030886 
13.80550351766593 
13.848830202602759 
13.892286231068955 
13.935872249215324 
13.979588905125487 
14.023436848825536 
14.067416732293683 
14.111529209469968 
14.155774936265969 
14.200154570574574 
14.244668772279741 
14.289318203266317 
14.334103527429907 
14.379025410686685 
14.424084520983364 
14.469281528307075 
14.514617104695363 
14.560091924246152 
14.605706663127798 
14.651461999589122 
14.697358613969495 
14.743397188708963 
14.789578408358398 
14.835902959589657 
14.882371531205813 
14.928984814151383 
14.975743501522619 
15.022648288577779 
15.069699872747508 
15.11689895364518 
15.16424623307732 
15.211742415054 
15.259388205799365 
15.307184313762084 
15.355131449625912 
15.403230326320243 
15.451481659030733 
15.499886165209887 
15.548444564587777 
15.597157579182733 
15.646025933312055 
15.695050353602795 
15.744231569002567 
15.793570310790397 
15.84306731258756 
15.892723310368531 
15.942539042471891 
15.992515249611328 
16.042652674886654 
16.092952063794826 
16.143414164241072 
16.194039726549963 
16.244829503476623 
16.295784250217885 
16.346904724423517 
16.398191686207518 
16.449645898159403 
16.501268125355523 
16.55305913537048 
16.605019698288505 
16.657150586714934 
16.709452575787683 
16.76192644318877 
16.814572969155893 
16.867392936494014 
16.920387130587002 
16.973556339409345 
17.026901353537802 
17.080422966163216 
17.13412197310227 
17.187999172809356 
17.24205536638841 
17.296291357604847 
17.35070795289751 
17.40530596139064 
17.46008619490594 
17.515049467974634 
17.570196597849566 
17.625528404517354 
17.681045710710592 
17.736749341920085 
17.79264012640712 
17.848718895215775 
17.904986482185283 
17.96144372396241 
18.01809146001394 
18.074930532639115 
18.13196178698218 
18.189186071044936 
18.246604235699365 
18.304217134700274 
18.36202562469797 
18.420030565251047 
18.478232818839125 
18.53663325087566 
18.595232729720873 
18.654032126694617 
18.71303231608933 
18.77223417518305 
18.831638584252467 
18.891246426585994 
18.951058588496906 
19.011075959336523 
19.071299431507438 
19.131729900476767 
19.19236826478948 
19.25321542608176 
19.31427228909441 
19.375539761686287 
19.43701875484785 
19.49871018271464 
19.560614962580914 
19.622734014913277 
19.685068263364386 
19.74761863478663 
19.810386059245964 
19.873371470035718 
19.936575803690474 
20.000000000000007 
0.0 
0.050955463979516225 
0.10148567700651334 
0.15159502524671709 
0.20128785833358975 
0.25056848974590373 
0.29944119718215934 
0.34791022293189133 
0.3959797742439264 
0.443654023691578 
0.4909371095348325 
0.5378331360795698 
0.5843461740338265 
0.630480260861142 
0.6762394011310215 
0.7216275668665526 
0.7666486978891767 
0.8113067021606826 
0.8556054561224311 
0.8995488050318317 
0.9431405632961312 
0.9863845148035146 
1.0292844132515473 
1.071843982473025 
1.114066916759188 
1.1559568811804204 
1.1975175119043744 
1.2387524165116068 
1.2796651743087186 
1.3202593366390571 
1.3605384271909826 
1.400505942303731 
1.4401653512709007 
1.4795200966416115 
1.5185735945193164 
1.557329234858333 
1.5957903817580967 
1.6339603737551802 
1.6718425241130879 
1.7094401211098478 
1.7467564283234558 
1.7837946849151542 
1.8205581059106004 
1.8570498824789494 
1.893273182209846 
1.9292311493883858 
1.964926905268043 
2.000363548341614 
2.0355441546101662 
2.0704717778500443 
2.1051494498779517 
2.139580180814117 
2.1737669593435847 
2.2077127529756337 
2.2414205083013763 
2.274893151249522 
2.3081335873403592 
2.341144701937963 
2.373929360500656 
2.40649040882973 
2.438830673316479 
2.47095296118753 
2.5028600607485254 
2.5345547416261507 
2.566039755008548 
2.5973178338841243 
2.6283916932787883 
2.6592640304916153 
2.6899375253289883 
2.7204148403372037 
2.7506986210335964 
2.7807914961361724 
2.8106960777917913 
2.8404149618029098 
2.8699507278528986 
2.8993059397299747 
2.9284831455497384 
2.9574848779763596 
2.9863136544424216 
3.0149719773674404 
3.0434623343750786 
3.0717871985090843 
3.099949028447953 
3.127950268718352 
3.1557933499073076 
3.183480688873191 
3.211014688955508 
3.238397740183512 
3.2656322194836687 
3.2927204908859817 
3.3196649057291925 
3.3464678028648853 
3.3731315088605074 
3.39965833820132 
3.4260505934913015 
3.4523105656530237 
3.4784405341265066 
3.50444276706708 
3.5303195215422694 
3.5560730437277144 
3.5817055691021404 
3.6072193226414084 
3.6326165190116457 
3.657899362761489 
3.683070048513441 
3.708130761154375 
3.733083676025184 
3.7579309591096104 
3.782674767222259 
3.8073172481958113 
3.8318605410674675 
3.856306776264619 
3.880658075789776 
3.9049165534047643 
3.929084314814202 
3.9531634578482864 
3.9771560726448874 
4.001064241830978 
4.024890040703413 
4.048635537409073 
4.072302793124379 
4.095893862234214 
4.119410792510249 
4.142855625288693 
4.166230395647486 
4.189537132582954 
4.2127778591859295 
4.235954592817357 
4.2590693452834145 
4.282124123010135 
4.305120927217578 
4.328061754093534 
4.3509485949668045 
4.373783436480052 
4.396568260762246 
4.419305045600722 
4.441995764612852 
4.464642387417365 
4.487246879805316 
4.509811203910717 
4.532337318380862 
4.55482717854634 
4.577282736590761 
4.5997059417202175 
4.622098740332474 
4.644463076185925 
4.666800890568316 
4.689114122465256 
4.711404708728519 
4.733674584244181 
4.7559256821005595 
4.778159933756024 
4.800379269206641 
4.822585617153712 
4.844780905171184 
4.866967059872972 
4.889146007080193 
4.911319671988331 
4.933489979334356 
4.955658853563787 
4.9778282189977485 
5.0 
5.027530735638705 
5.0550596502731455 
5.082587153232725 
5.1101136538258585 
5.137639561346053 
5.165165285078 
5.192691234303657 
5.220217818308335 
5.247745446386783 
5.275274527849274 
5.302805472027694 
5.330338688281622 
5.357874586004424 
5.385413574629335 
5.412956063635549 
5.440502462554308 
5.468053180974993 
5.495608628551206 
5.523169215006873 
5.550735350142328 
5.5783074438404086 
5.60588590607255 
5.633471146904884 
5.661063576504332 
5.688663605144705 
5.716271643212807 
5.743888101214535 
5.771513389780978 
5.799147919674532 
5.826792101795001 
5.85444634718571 
5.882111067039614 
5.909786672705414 
5.937473575693673 
5.965172187682935 
5.992882920525846 
6.020606186255275 
6.048342397090449 
6.076091965443074 
6.103855303923466 
6.1316328253466965 
6.15942494273872 
6.187232069342522 
6.215054618624258 
6.2428930042794075 
6.27074764023892 
6.2986189406753725 
6.326507320009129 
6.354413192914498 
6.382336974325904 
6.410279079444051 
6.4382399237421035 
6.466219922971857 
6.494219493169925 
6.522239050663921 
6.5502790120786525 
6.578339794342316 
6.606421814692692 
6.634525490683353 
6.662651240189869 
6.6907994814160245 
6.718970632900036 
6.74716511352077 
6.775383342503982 
6.803625739428536 
6.831892724232659 
6.86018471722017 
6.888502139066739 
6.9168454108261415 
6.945214953936514 
6.9736111902266265 
7.002034541922149 
7.030485431651934 
7.0589642824542995 
7.087471517783318 
7.116007561515114 
7.144572837954165 
7.173167771839612 
7.201792788351575 
7.230448313117476 
7.259134772218365 
7.287852592195257 
7.316602200055476 
7.345384023278996 
7.374198489824812 
7.40304602813729 
7.431927067152544 
7.460842036304809 
7.489791365532839 
7.518775485286277 
7.547794826532078 
7.576849820760907 
7.605940899993552 
7.6350684967873566 
7.664233044242642 
7.693434976009154 
7.722674726292508 
7.751952729860644 
7.781269422050297 
7.81062523877346 
7.840020616523875 
7.8694559923835214 
7.898931804029108 
7.928448489738595 
7.958006488397691 
7.9876062395063965 
8.017248183185533 
8.046932760183282 
8.076660411881749 
8.10643158030351 
8.136246708118206 
8.166106238649107 
8.196010615879707 
8.225960284460342 
8.25595568971477 
8.285997277646826 
8.316085494947032 
8.346220788999243 
8.376403607887312 
8.406634400401726 
8.43691361604631 
8.467241705044888 
8.497619118347988 
8.528046307639547 
8.558523725343619 
8.589051824631111 
8.61963105942652 
8.650261884414675 
8.680944755047513 
8.711680127550828 
8.742468458931077 
8.77331020698217 
8.804205830292261 
8.835155788250594 
8.8661605410543 
8.897220549715282 
8.92833627606702 
8.95950818277149 
8.990736733325996 
9.022022392070102 
9.053365624192498 
9.08476689573796 
9.116226673614232 
9.147745425599016 
9.179323620346882 
9.210961727396278 
9.242660217176478 
9.274419561014602 
9.306240231142606 
9.338122700704313 
9.370067443762448 
9.40207493530568 
9.434145651255701 
9.466280068474276 
9.49847866477036 
9.530741918907188 
9.563070310609392 
9.59546432057015 
9.627924430458314 
9.660451122925583 
9.693044881613677 
9.725706191161528 
9.75843553721249 
9.79123340642155 
9.824100286462578 
9.857036666035565 
9.890043034873898 
9.923119883751642 
9.95626770449083 
9.989486989968782 
10.022778234125436 
10.056141931970686 
10.089578579591741 
10.123088674160513 
10.156672713941 
10.19033119829669 
10.224064627698002 
10.257873503729712 
10.291758329098421 
10.325719607640021 
10.359757844327202 
10.393873545276936 
10.42806721775803 
10.462339370198645 
10.496690512193872 
10.5311211545133 
10.565631809108623 
10.600222989121228 
10.634895208889851 
10.669648983958211 
10.704484831082684 
10.739403268239965 
10.77440481463481 
10.80948999070771 
10.844659318142668 
10.879913319874925 
10.915252520098768 
10.950677444275286 
10.98618861914022 
11.021786572711772 
11.057471834298465 
11.093244934507002 
11.129106405250184 
11.165056779754776 
11.201096592569481 
11.237226379572855 
11.273446677981289 
11.309758026356988 
11.346160964616 
11.38265603403622 
11.41924377726545 
11.455924738329458 
11.492699462640086 
11.52956849700335 
11.566532389627554 
11.603591690131466 
11.640746949552483 
11.67799872035482 
11.715347556437722 
11.75279401314371 
11.790338647266827 
11.82798201706093 
11.865724682247983 
11.903567204026377 
11.941510145079274 
11.979554069582989 
12.017699543215357 
12.055947133164159 
12.09429740813555 
12.132750938362515 
12.171308295613343 
12.209970053200152 
12.24873678598738 
12.28760907040035 
12.326587484433844 
12.365672607660702 
12.404865021240411 
12.444165307927776 
12.483574052081579 
12.52309183967326 
12.56271925829563 
12.602456897171614 
12.64230534716301 
12.682265200779288 
12.722337052186354 
12.762521497215454 
12.802819133371969 
12.84323055984434 
12.883756377512961 
12.924397188959126 
12.965153598473961 
13.006026212067441 
13.047015637477385 
13.088122484178504 
13.129347363391428 
13.170690888091857 
13.212153673019612 
13.253736334687815 
13.295439491392038 
13.33726376321951 
13.379209772058317 
13.421278141606676 
13.463469497382183 
13.505784466731138 
13.548223678837832 
13.59078776473397 
13.633477357307987 
13.676293091314488 
13.719235603383689 
13.762305532030886 
13.80550351766593 
13.848830202602759 
13.892286231068955 
13.935872249215324 
13.979588905125487 
14.023436848825536 
14.067416732293683 
14.111529209469968 
14.155774936265969 
14.200154570574574 
14.244668772279741 
14.289318203266317 
14.334103527429907 
14.379025410686685 
14.424084520983364 
14.469281528307075 
14.514617104695363 
14.560091924246152 
14.605706663127798 
14.651461999589122 
14.697358613969495 
14.743397188708963 
14.789578408358398 
14.835902959589657 
14.882371531205813 
14.928984814151383 
14.975743501522619 
15.022648288577779 
15.069699872747508 
15.11689895364518 
15.16424623307732 
15.211742415054 
15.259388205799365 
15.307184313762084 
15.355131449625912 
15.403230326320243 
15.451481659030733 
15.499886165209887 
15.548444564587777 
15.597157579182733 
15.646025933312055 
15.695050353602795 
15.744231569002567 
15.793570310790397 
15.84306731258756 
15.892723310368531 
15.942539042471891 
15.992515249611328 
16.042652674886654 
16.092952063794826 
16.143414164241072 
16.194039726549963 
16.244829503476623 
16.295784250217885 
16.346904724423517 
16.398191686207518 
16.449645898159403 
16.501268125355523 
16.55305913537048 
16.605019698288505 
16.657150586714934 
16.709452575787683 
16.76192644318877 
16.814572969155893 
16.867392936494014 
16.920387130587002 
16.973556339409345 
17.026901353537802 
17.080422966163216 
17.13412197310227 
17.187999172809356 
17.24205536638841 
17.296291357604847 
17.35070795289751 
17.40530596139064 
17.46008619490594 
17.515049467974634 
17.570196597849566 
17.625528404517354 
17.681045710710592 
17.736749341920085 
17.79264012640712 
17.848718895215775 
17.904986482185283 
17.96144372396241 
18.01809146001394 
18.074930532639115 
18.13196178698218 
18.189186071044936 
18.246604235699365 
18.304217134700274 
18.36202562469797 
18.420030565251047 
18.478232818839125 
18.53663325087566 
18.595232729720873 
18.654032126694617 
18.71303231608933 
18.77223417518305 
18.831638584252467 
18.891246426585994 
18.951058588496906 
19.011075959336523 
19.071299431507438 
19.131729900476767 
19.19236826478948 
19.25321542608176 
19.31427228909441 
19.375539761686287 
19.43701875484785 
19.49871018271464 
19.560614962580914 
19.622734014913277 
19.685068263364386 
19.74761863478663 
19.810386059245964 
19.873371470035718 
19.936575803690474 
20.000000000000007 
0.0 
0.050955463979516225 
0.10148567700651334 
0.15159502524671709 
0.20128785833358975 
0.25056848974590373 
0.29944119718215934 
0.34791022293189133 
0.3959797742439264 
0.443654023691578 
0.4909371095348325 
0.5378331360795698 
0.5843461740338265 
0.630480260861142 
0.6762394011310215 
0.7216275668665526 
0.7666486978891767 
0.8113067021606826 
0.8556054561224311 
0.8995488050318317 
0.9431405632961312 
0.9863845148035146 
1.0292844132515473 
1.071843982473025 
1.114066916759188 
1.1559568811804204 
1.1975175119043744 
1.2387524165116068 
1.2796651743087186 
1.3202593366390571 
1.3605384271909826 
1.400505942303731 
1.4401653512709007 
1.4795200966416115 
1.5185735945193164 
1.557329234858333 
1.5957903817580967 
1.6339603737551802 
1.6718425241130879 
1.7094401211098478 
1.7467564283234558 
1.7837946849151542 
1.8205581059106004 
1.8570498824789494 
1.893273182209846 
1.9292311493883858 
1.964926905268043 
2.000363548341614 
2.0355441546101662 
2.0704717778500443 
2.1051494498779517 
2.139580180814117 
2.1737669593435847 
2.2077127529756337 
2.2414205083013763 
2.274893151249522 
2.3081335873403592 
2.341144701937963 
2.373929360500656 
2.40649040882973 
2.438830673316479 
2.47095296118753 
2.5028600607485254 
2.5345547416261507 
2.566039755008548 
2.5973178338841243 
2.6283916932787883 
2.6592640304916153 
2.6899375253289883 
2.7204148403372037 
2.7506986210335964 
2.7807914961361724 
2.8106960777917913 
2.8404149618029098 
2.8699507278528986 
2.8993059397299747 
2.9284831455497384 
2.9574848779763596 
2.9863136544424216 
3.0149719773674404 
3.0434623343750786 
3.0717871985090843 
3.099949028447953 
3.127950268718352 
3.1557933499073076 
3.183480688873191 
3.211014688955508 
3.238397740183512 
3.2656322194836687 
3.2927204908859817 
3.3196649057291925 
3.3464678028648853 
3.3731315088605074 
3.39965833820132 
3.4260505934913015 
3.4523105656530237 
3.4784405341265066 
3.50444276706708 
3.5303195215422694 
3.5560730437277144 
3.5817055691021404 
3.6072193226414084 
3.6326165190116457 
3.657899362761489 
3.683070048513441 
3.708130761154375 
3.733083676025184 
3.7579309591096104 
3.782674767222259 
3.8073172481958113 
3.8318605410674675 
3.856306776264619 
3.880658075789776 
3.9049165534047643 
3.929084314814202 
3.9531634578482864 
3.9771560726448874 
4.001064241830978 
4.024890040703413 
4.048635537409073 
4.072302793124379 
4.095893862234214 
4.119410792510249 
4.142855625288693 
4.166230395647486 
4.189537132582954 
4.2127778591859295 
4.235954592817357 
4.2590693452834145 
4.282124123010135 
4.305120927217578 
4.328061754093534 
4.3509485949668045 
4.373783436480052 
4.396568260762246 
4.419305045600722 
4.441995764612852 
4.464642387417365 
4.487246879805316 
4.509811203910717 
4.532337318380862 
4.55482717854634 
4.577282736590761 
4.5997059417202175 
4.622098740332474 
4.644463076185925 
4.666800890568316 
4.689114122465256 
4.711404708728519 
4.733674584244181 
4.7559256821005595 
4.778159933756024 
4.800379269206641 
4.822585617153712 
4.844780905171184 
4.866967059872972 
4.889146007080193 
4.911319671988331 
4.933489979334356 
4.955658853563787 
4.9778282189977485 
5.0 
5.027530735638705 
5.0550596502731455 
5.082587153232725 
5.1101136538258585 
5.137639561346053 
5.165165285078 
5.192691234303657 
5.220217818308335 
5.247745446386783 
5.275274527849274 
5.302805472027694 
5.330338688281622 
5.357874586004424 
5.385413574629335 
5.412956063635549 
5.440502462554308 
5.468053180974993 
5.495608628551206 
5.523169215006873 
5.550735350142328 
5.5783074438404086 
5.60588590607255 
5.633471146904884 
5.661063576504332 
5.688663605144705 
5.716271643212807 
5.743888101214535 
5.771513389780978 
5.799147919674532 
5.826792101795001 
5.85444634718571 
5.882111067039614 
5.909786672705414 
5.937473575693673 
5.965172187682935 
5.992882920525846 
6.020606186255275 
6.048342397090449 
6.076091965443074 
6.103855303923466 
6.1316328253466965 
6.15942494273872 
6.187232069342522 
6.215054618624258 
6.2428930042794075 
6.27074764023892 
6.2986189406753725 
6.326507320009129 
6.354413192914498 
6.382336974325904 
6.410279079444051 
6.4382399237421035 
6.466219922971857 
6.494219493169925 
6.522239050663921 
6.5502790120786525 
6.578339794342316 
6.606421814692692 
6.634525490683353 
6.662651240189869 
6.6907994814160245 
6.718970632900036 
6.74716511352077 
6.775383342503982 
6.803625739428536 
6.831892724232659 
6.86018471722017 
6.888502139066739 
6.9168454108261415 
6.945214953936514 
6.9736111902266265 
7.002034541922149 
7.030485431651934 
7.0589642824542995 
7.087471517783318 
7.116007561515114 
7.144572837954165 
7.173167771839612 
7.201792788351575 
7.230448313117476 
7.259134772218365 
7.287852592195257 
7.316602200055476 
7.345384023278996 
7.374198489824812 
7.40304602813729 
7.431927067152544 
7.460842036304809 
7.489791365532839 
7.518775485286277 
7.547794826532078 
7.576849820760907 
7.605940899993552 
7.6350684967873566 
7.664233044242642 
7.693434976009154 
7.722674726292508 
7.751952729860644 
7.781269422050297 
7.81062523877346 
7.840020616523875 
7.8694559923835214 
7.898931804029108 
7.928448489738595 
7.958006488397691 
7.9876062395063965 
8.017248183185533 
8.046932760183282 
8.076660411881749 
8.10643158030351 
8.136246708118206 
8.166106238649107 
8.196010615879707 
8.225960284460342 
8.25595568971477 
8.285997277646826 
8.316085494947032 
8.346220788999243 
8.376403607887312 
8.406634400401726 
8.43691361604631 
8.467241705044888 
8.497619118347988 
8.528046307639547 
8.558523725343619 
8.589051824631111 
8.61963105942652 
8.650261884414675 
8.680944755047513 
8.711680127550828 
8.742468458931077 
8.77331020698217 
8.804205830292261 
8.835155788250594 
8.8661605410543 
8.897220549715282 
8.92833627606702 
8.95950818277149 
8.990736733325996 
9.022022392070102 
9.053365624192498 
9.08476689573796 
9.116226673614232 
9.147745425599016 
9.179323620346882 
9.210961727396278 
9.242660217176478 
9.274419561014602 
9.306240231142606 
9.338122700704313 
9.370067443762448 
9.40207493530568 
9.434145651255701 
9.466280068474276 
9.49847866477036 
9.530741918907188 
9.563070310609392 
9.59546432057015 
9.627924430458314 
9.660451122925583 
9.693044881613677 
9.725706191161528 
9.75843553721249 
9.79123340642155 
9.824100286462578 
9.857036666035565 
9.890043034873898 
9.923119883751642 
9.95626770449083 
9.989486989968782 
10.022778234125436 
10.056141931970686 
10.089578579591741 
10.123088674160513 
10.156672713941 
10.19033119829669 
10.224064627698002 
10.257873503729712 
10.291758329098421 
10.325719607640021 
10.359757844327202 
10.393873545276936 
10.42806721775803 
10.462339370198645 
10.496690512193872 
10.5311211545133 
10.565631809108623 
10.600222989121228 
10.634895208889851 
10.669648983958211 
10.704484831082684 
10.739403268239965 
10.77440481463481 
10.80948999070771 
10.844659318142668 
10.879913319874925 
10.915252520098768 
10.950677444275286 
10.98618861914022 
11.021786572711772 
11.057471834298465 
11.093244934507002 
11.129106405250184 
11.165056779754776 
11.201096592569481 
11.237226379572855 
11.273446677981289 
11.309758026356988 
11.346160964616 
11.38265603403622 
11.41924377726545 
11.455924738329458 
11.492699462640086 
11.52956849700335 
11.566532389627554 
11.603591690131466 
11.640746949552483 
11.67799872035482 
11.715347556437722 
11.75279401314371 
11.790338647266827 
11.82798201706093 
11.865724682247983 
11.903567204026377 
11.941510145079274 
11.979554069582989 
12.017699543215357 
12.055947133164159 
12.09429740813555 
12.132750938362515 
12.171308295613343 
12.209970053200152 
12.24873678598738 
12.28760907040035 
12.326587484433844 
12.365672607660702 
12.404865021240411 
12.444165307927776 
12.483574052081579 
12.52309183967326 
12.56271925829563 
12.602456897171614 
12.64230534716301 
12.682265200779288 
12.722337052186354 
12.762521497215454 
12.802819133371969 
12.84323055984434 
12.883756377512961 
12.924397188959126 
12.965153598473961 
13.006026212067441 
13.047015637477385 
13.088122484178504 
13.129347363391428 
13.170690888091857 
13.212153673019612 
13.253736334687815 
13.295439491392038 
13.33726376321951 
13.379209772058317 
13.421278141606676 
13.463469497382183 
13.505784466731138 
13.548223678837832 
13.59078776473397 
13.633477357307987 
13.676293091314488 
13.719235603383689 
13.762305532030886 
13.80550351766593 
13.848830202602759 
13.892286231068955 
13.935872249215324 
13.979588905125487 
14.023436848825536 
14.067416732293683 
14.111529209469968 
14.155774936265969 
14.200154570574574 