VARIABLES="x","y" 
ZONE NODES=25320, ELEMENTS=24893, DATAPACKING=BLOCK, ZONETYPE=FEQUADRILATERAL
0.0 
0.08265013547805022 
0.16418285980342961 
0.24461689067221215 
0.3239706935503399 
0.4022624859127859 
0.4795102414257917 
0.5557316940731347 
0.6309443422273633 
0.7051654526669546 
0.7784120645402863 
0.8507009932773766 
0.9220488344502389 
0.9924719675827705 
1.061986559911063 
1.1306085700949335 
1.1983537518816303 
1.2652376577224378 
1.3312756423431136 
1.3964828662689022 
1.4608742993049937 
1.5244647239731726 
1.5872687389054878 
1.6493007621957032 
1.7105750347092918 
1.7711056233527627 
1.8309064243030324 
1.889991166197607 
1.9483734132863142 
2.0060665685452754 
2.063083876753869 
2.1194384275353753 
2.17514315836199 
2.2302108575249227 
2.2846541670702365 
2.33848558570112 
2.3917174716472527 
2.4443620455019097 
2.4964313930274855 
2.547937467930055 
2.5988920946036154 
2.6493069708446497 
2.699193670537621 
2.748563646312022 
2.7974282321715855 
2.845798646096266 
2.8936859926175815 
2.9411012653679114 
2.9880553496043376 
3.0345590247076 
3.080622966656753 
3.126257750480077 
3.1714738526828192 
3.216281653652314 
3.260691440041035 
3.3047134071281334 
3.348357661159999 
3.391634221670374 
3.434553023780567 
3.4771239204802917 
3.519356684889638 
3.5612610125027193 
3.602846523413494 
3.6441227645242735 
3.6850992117374384 
3.7257852721308398 
3.766190286117416 
3.8063235295894904 
3.8461942160482705 
3.885811498719014 
3.925184472652358 
3.964322176812301 
4.003233596151298 
4.041927663672964 
4.080413262482849 
4.118699227827754 
4.15679434912407 
4.194707371975579 
4.232447000181219 
4.270021897733227 
4.3074406908061675 
4.344711969737257 
4.381844290998481 
4.418846179160921 
4.455726128851768 
4.492492606704454 
4.529154053302366 
4.565718885116568 
4.602195496438 
4.638592261304575 
4.674917535423632 
4.711179658090178 
4.747386954101366 
4.783547735667636 
4.819670304320979 
4.855762952820743 
4.891833967057418 
4.927891627954858 
4.963944213371353 
5.0 
5.044808483970407 
5.089612824426381 
5.134414786219673 
5.179216134108339 
5.224018632826254 
5.268824047152624 
5.313634141981502 
5.358450682391302 
5.403275433714338 
5.448110161606351 
5.4929566321160594 
5.5378166117547245 
5.582691867565738 
5.627584167194223 
5.67249527895666 
5.717426971910542 
5.762381015924064 
5.807359181745828 
5.852363241074604 
5.897394966629107 
5.942456132217834 
5.98754851280893 
6.032673884600105 
6.077834025088595 
6.12303071314119 
6.168265729064287 
6.213540854674032 
6.258857873366495 
6.304218570187922 
6.349624731905058 
6.395078147075507 
6.440580606118203 
6.486133901383926 
6.531739827225906 
6.577400180070501 
6.623116758487956 
6.668891363263256 
6.714725797467057 
6.760621866526705 
6.806581378297355 
6.852606143133183 
6.8986979739587 
6.944858686340153 
6.99109009855705 
7.037394031673781 
7.083772309611347 
7.130226759219207 
7.176759210347233 
7.223371495917796 
7.270065451997963 
7.316842917871815 
7.3637057361129 
7.4106557526568135 
7.457694816873911 
7.50482478164215 
7.552047503420081 
7.59936484231997 
7.646778662181069 
7.694290830643039 
7.741903219219505 
7.789617703371786 
7.837436162582765 
7.885360480430923 
7.933392544664532 
7.9815342472760165 
8.02978748457648 
8.078154157270394 
8.126636170530478 
8.175235434072736 
8.223953862231685 
8.27279337403576 
8.321755893282901 
8.370843348616336 
8.420057673600558 
8.46940080679747 
8.51887469184276 
8.568481277522459 
8.618222517849695 
8.668100372141675 
8.718116805096859 
8.768273786872342 
8.818573293161467 
8.869017305271647 
8.919607810202406 
8.970346800723643 
9.021236275454148 
9.072278238940298 
9.123474701735041 
9.174827680477083 
9.226339197970322 
9.278011283263528 
9.329845971730263 
9.381845305149072 
9.434011331783886 
9.486346106464719 
9.538851690668604 
9.591530152600797 
9.644383567276233 
9.697414016601279 
9.750623589455724 
9.80401438177508 
9.857588496633111 
9.911348044324708 
9.965295142448987 
10.019431915992719 
10.073760497414025 
10.128283026726379 
10.18300165158289 
10.237918527360922 
10.29303581724697 
10.348355692321888 
10.403880331646398 
10.459611922346927 
10.515552659701756 
10.57170474722749 
10.628070396765864 
10.684651828570866 
10.741451271396176 
10.798470962582986 
10.855713148148105 
10.913180082872444 
10.97087403038982 
11.02879726327614 
11.0869520631389 
11.145340720707061 
11.203965535921288 
11.262828818024545 
11.321932885653055 
11.38128006692762 
11.440872699545341 
11.500713130871706 
11.560803718033029 
11.621146828009309 
11.681744837727486 
11.742600134155033 
11.803715114394006 
11.865092185775456 
11.926733765954253 
11.988642283004324 
12.050820175514287 
12.113269892683519 
12.175993894418614 
12.238994651430296 
12.302274645330732 
12.365836368731284 
12.429682325340696 
12.493815030063713 
12.558237009100141 
12.622950800044368 
12.687958951985296 
12.753264025606772 
12.818868593288446 
12.8847752392071 
12.950986559438435 
13.017505162059328 
13.08433366725058 
13.1514747074001 
13.218930927206625 
13.286704983783872 
13.354799546765216 
13.423217298408838 
13.491960933703384 
13.561033160474123 
13.630436699489612 
13.700174284568844 
13.770248662688969 
13.840662594093475 
13.91141885240092 
13.982520224714191 
14.053969511730278 
14.1257695278506 
14.197923101291863 
14.270433074197465 
14.343302302749459 
14.41653365728103 
14.490130022389591 
14.564094297050389 
14.638429394730698 
14.713138243504588 
14.788223786168254 
14.863688980355938 
14.939536798656427 
15.015770228730153 
15.092392273426867 
15.169405950903931 
15.246814294745189 
15.324620354080478 
15.402827193705736 
15.481437894203692 
15.560455552065248 
15.639883279811437 
15.719724206116025 
15.799981475928744 
15.880658250599181 
15.961757708001306 
16.043283042658643 
16.1252374658701 
16.20762420583647 
16.290446507787586 
16.37370763411016 
16.457410864476284 
16.54155949597259 
16.626156843230174 
16.71120623855512 
16.796711032059797 
16.88267459179476 
16.969100303881486 
17.055991572645713 
17.143351820751544 
17.23118448933628 
17.31949303814595 
17.408280945671592 
17.4975517092863 
17.587308845382935 
17.677555889512693 
17.76829639652432 
17.85953394070418 
17.951272115917014 
18.043514535747534 
18.136264833642723 
18.22952666305501 
18.323303697586127 
18.417599631131836 
18.512418178027445 
18.60776307319411 
18.703638072285933 
18.80004695183792 
18.89699350941474 
18.99448156376028 
19.092514954948122 
19.19109754453276 
19.290233215701704 
19.389925873428496 
19.490179444626442 
19.590997878303373 
19.692385145717147 
19.7943452405321 
19.896882178976355 
20.000000000000007 
0.0 
0.08265013547805022 
0.16418285980342961 
0.24461689067221215 
0.3239706935503399 
0.4022624859127859 
0.4795102414257917 
0.5557316940731347 
0.6309443422273633 
0.7051654526669546 
0.7784120645402863 
0.8507009932773766 
0.9220488344502389 
0.9924719675827705 
1.061986559911063 
1.1306085700949335 
1.1983537518816303 
1.2652376577224378 
1.3312756423431136 
1.3964828662689022 
1.4608742993049937 
1.5244647239731726 
1.5872687389054878 
1.6493007621957032 
1.7105750347092918 
1.7711056233527627 
1.8309064243030324 
1.889991166197607 
1.9483734132863142 
2.0060665685452754 
2.063083876753869 
2.1194384275353753 
2.17514315836199 
2.2302108575249227 
2.2846541670702365 
2.33848558570112 
2.3917174716472527 
2.4443620455019097 
2.4964313930274855 
2.547937467930055 
2.5988920946036154 
2.6493069708446497 
2.699193670537621 
2.748563646312022 
2.7974282321715855 
2.845798646096266 
2.8936859926175815 
2.9411012653679114 
2.9880553496043376 
3.0345590247076 
3.080622966656753 
3.126257750480077 
3.1714738526828192 
3.216281653652314 
3.260691440041035 
3.3047134071281334 
3.348357661159999 
3.391634221670374 
3.434553023780567 
3.4771239204802917 
3.519356684889638 
3.5612610125027193 
3.602846523413494 
3.6441227645242735 
3.6850992117374384 
3.7257852721308398 
3.766190286117416 
3.8063235295894904 
3.8461942160482705 
3.885811498719014 
3.925184472652358 
3.964322176812301 
4.003233596151298 
4.041927663672964 
4.080413262482849 
4.118699227827754 
4.15679434912407 
4.194707371975579 
4.232447000181219 
4.270021897733227 
4.3074406908061675 
4.344711969737257 
4.381844290998481 
4.418846179160921 
4.455726128851768 
4.492492606704454 
4.529154053302366 
4.565718885116568 
4.602195496438 
4.638592261304575 
4.674917535423632 
4.711179658090178 
4.747386954101366 
4.783547735667636 
4.819670304320979 
4.855762952820743 
4.891833967057418 
4.927891627954858 
4.963944213371353 
5.0 
5.044808483970407 
5.089612824426381 
5.134414786219673 
5.179216134108339 
5.224018632826254 
5.268824047152624 
5.313634141981502 
5.358450682391302 
5.403275433714338 
5.448110161606351 
5.4929566321160594 
5.5378166117547245 
5.582691867565738 
5.627584167194223 
5.67249527895666 
5.717426971910542 
5.762381015924064 
5.807359181745828 
5.852363241074604 
5.897394966629107 
5.942456132217834 
5.98754851280893 
6.032673884600105 
6.077834025088595 
6.12303071314119 
6.168265729064287 
6.213540854674032 
6.258857873366495 
6.304218570187922 
6.349624731905058 
6.395078147075507 
6.440580606118203 
6.486133901383926 
6.531739827225906 
6.577400180070501 
6.623116758487956 
6.668891363263256 
6.714725797467057 
6.760621866526705 
6.806581378297355 
6.852606143133183 
6.8986979739587 
6.944858686340153 
6.99109009855705 
7.037394031673781 
7.083772309611347 
7.130226759219207 
7.176759210347233 
7.223371495917796 
7.270065451997963 
7.316842917871815 
7.3637057361129 
7.4106557526568135 
7.457694816873911 
7.50482478164215 
7.552047503420081 
7.59936484231997 
7.646778662181069 
7.694290830643039 
7.741903219219505 
7.789617703371786 
7.837436162582765 
7.885360480430923 
7.933392544664532 
7.9815342472760165 
8.02978748457648 
8.078154157270394 
8.126636170530478 
8.175235434072736 
8.223953862231685 
8.27279337403576 
8.321755893282901 
8.370843348616336 
8.420057673600558 
8.46940080679747 
8.51887469184276 
8.568481277522459 
8.618222517849695 
8.668100372141675 
8.718116805096859 
8.768273786872342 
8.818573293161467 
8.869017305271647 
8.919607810202406 
8.970346800723643 
9.021236275454148 
9.072278238940298 
9.123474701735041 
9.174827680477083 
9.226339197970322 
9.278011283263528 
9.329845971730263 
9.381845305149072 
9.434011331783886 
9.486346106464719 
9.538851690668604 
9.591530152600797 
9.644383567276233 
9.697414016601279 
9.750623589455724 
9.80401438177508 
9.857588496633111 
9.911348044324708 
9.965295142448987 
10.019431915992719 
10.073760497414025 
10.128283026726379 
10.18300165158289 
10.237918527360922 
10.29303581724697 
10.348355692321888 
10.403880331646398 
10.459611922346927 
10.515552659701756 
10.57170474722749 
10.628070396765864 
10.684651828570866 
10.741451271396176 
10.798470962582986 
10.855713148148105 
10.913180082872444 
10.97087403038982 
11.02879726327614 
11.0869520631389 
11.145340720707061 
11.203965535921288 
11.262828818024545 
11.321932885653055 
11.38128006692762 
11.440872699545341 
11.500713130871706 
11.560803718033029 
11.621146828009309 
11.681744837727486 
11.742600134155033 
11.803715114394006 
11.865092185775456 
11.926733765954253 
11.988642283004324 
12.050820175514287 
12.113269892683519 
12.175993894418614 
12.238994651430296 
12.302274645330732 
12.365836368731284 
12.429682325340696 
12.493815030063713 
12.558237009100141 
12.622950800044368 
12.687958951985296 
12.753264025606772 
12.818868593288446 
12.8847752392071 
12.950986559438435 
13.017505162059328 
13.08433366725058 
13.1514747074001 
13.218930927206625 
13.286704983783872 
13.354799546765216 
13.423217298408838 
13.491960933703384 
13.561033160474123 
13.630436699489612 
13.700174284568844 
13.770248662688969 
13.840662594093475 
13.91141885240092 
13.982520224714191 
14.053969511730278 
14.1257695278506 
14.197923101291863 
14.270433074197465 
14.343302302749459 
14.41653365728103 
14.490130022389591 
14.564094297050389 
14.638429394730698 
14.713138243504588 
14.788223786168254 
14.863688980355938 
14.939536798656427 
15.015770228730153 
15.092392273426867 
15.169405950903931 
15.246814294745189 
15.324620354080478 
15.402827193705736 
15.481437894203692 
15.560455552065248 
15.639883279811437 
15.719724206116025 
15.799981475928744 
15.880658250599181 
15.961757708001306 
16.043283042658643 
16.1252374658701 
16.20762420583647 
16.290446507787586 
16.37370763411016 
16.457410864476284 
16.54155949597259 
16.626156843230174 
16.71120623855512 
16.796711032059797 
16.88267459179476 
16.969100303881486 
17.055991572645713 
17.143351820751544 
17.23118448933628 
17.31949303814595 
17.408280945671592 
17.4975517092863 
17.587308845382935 
17.677555889512693 
17.76829639652432 
17.85953394070418 
17.951272115917014 
18.043514535747534 
18.136264833642723 
18.22952666305501 
18.323303697586127 
18.417599631131836 
18.512418178027445 
18.60776307319411 
18.703638072285933 
18.80004695183792 
18.89699350941474 
18.99448156376028 
19.092514954948122 
19.19109754453276 
19.290233215701704 
19.389925873428496 
19.490179444626442 
19.590997878303373 
19.692385145717147 
19.7943452405321 
19.896882178976355 
20.000000000000007 
0.0 
0.08265013547805022 
0.16418285980342961 
0.24461689067221215 
0.3239706935503399 
0.4022624859127859 
0.4795102414257917 
0.5557316940731347 
0.6309443422273633 
0.7051654526669546 
0.7784120645402863 
0.8507009932773766 
0.9220488344502389 
0.9924719675827705 
1.061986559911063 
1.1306085700949335 
1.1983537518816303 
1.2652376577224378 
1.3312756423431136 
1.3964828662689022 
1.4608742993049937 
1.5244647239731726 
1.5872687389054878 
1.6493007621957032 
1.7105750347092918 
1.7711056233527627 
1.8309064243030324 
1.889991166197607 
1.9483734132863142 
2.0060665685452754 
2.063083876753869 
2.1194384275353753 
2.17514315836199 
2.2302108575249227 
2.2846541670702365 
2.33848558570112 
2.3917174716472527 
2.4443620455019097 
2.4964313930274855 
2.547937467930055 
2.5988920946036154 
2.6493069708446497 
2.699193670537621 
2.748563646312022 
2.7974282321715855 
2.845798646096266 
2.8936859926175815 
2.9411012653679114 
2.9880553496043376 
3.0345590247076 
3.080622966656753 
3.126257750480077 
3.1714738526828192 
3.216281653652314 
3.260691440041035 
3.3047134071281334 
3.348357661159999 
3.391634221670374 
3.434553023780567 
3.4771239204802917 
3.519356684889638 
3.5612610125027193 
3.602846523413494 
3.6441227645242735 
3.6850992117374384 
3.7257852721308398 
3.766190286117416 
3.8063235295894904 
3.8461942160482705 
3.885811498719014 
3.925184472652358 
3.964322176812301 
4.003233596151298 
4.041927663672964 
4.080413262482849 
4.118699227827754 
4.15679434912407 
4.194707371975579 
4.232447000181219 
4.270021897733227 
4.3074406908061675 
4.344711969737257 
4.381844290998481 
4.418846179160921 
4.455726128851768 
4.492492606704454 
4.529154053302366 
4.565718885116568 
4.602195496438 
4.638592261304575 
4.674917535423632 
4.711179658090178 
4.747386954101366 
4.783547735667636 
4.819670304320979 
4.855762952820743 
4.891833967057418 
4.927891627954858 
4.963944213371353 
5.0 
5.044808483970407 
5.089612824426381 
5.134414786219673 
5.179216134108339 
5.224018632826254 
5.268824047152624 
5.313634141981502 
5.358450682391302 
5.403275433714338 
5.448110161606351 
5.4929566321160594 
5.5378166117547245 
5.582691867565738 
5.627584167194223 
5.67249527895666 
5.717426971910542 
5.762381015924064 
5.807359181745828 
5.852363241074604 
5.897394966629107 
5.942456132217834 
5.98754851280893 
6.032673884600105 
6.077834025088595 
6.12303071314119 
6.168265729064287 
6.213540854674032 
6.258857873366495 
6.304218570187922 
6.349624731905058 
6.395078147075507 
6.440580606118203 
6.486133901383926 
6.531739827225906 
6.577400180070501 
6.623116758487956 
6.668891363263256 
6.714725797467057 
6.760621866526705 
6.806581378297355 
6.852606143133183 
6.8986979739587 
6.944858686340153 
6.99109009855705 
7.037394031673781 
7.083772309611347 
7.130226759219207 
7.176759210347233 
7.223371495917796 
7.270065451997963 
7.316842917871815 
7.3637057361129 
7.4106557526568135 
7.457694816873911 
7.50482478164215 
7.552047503420081 
7.59936484231997 
7.646778662181069 
7.694290830643039 
7.741903219219505 
7.789617703371786 
7.837436162582765 
7.885360480430923 
7.933392544664532 
7.9815342472760165 
8.02978748457648 
8.078154157270394 
8.126636170530478 
8.175235434072736 
8.223953862231685 
8.27279337403576 
8.321755893282901 
8.370843348616336 
8.420057673600558 
8.46940080679747 
8.51887469184276 
8.568481277522459 
8.618222517849695 
8.668100372141675 
8.718116805096859 
8.768273786872342 
8.818573293161467 
8.869017305271647 
8.919607810202406 
8.970346800723643 
9.021236275454148 
9.072278238940298 
9.123474701735041 
9.174827680477083 
9.226339197970322 
9.278011283263528 
9.329845971730263 
9.381845305149072 
9.434011331783886 
9.486346106464719 
9.538851690668604 
9.591530152600797 
9.644383567276233 
9.697414016601279 
9.750623589455724 
9.80401438177508 
9.857588496633111 
9.911348044324708 
9.965295142448987 
10.019431915992719 
10.073760497414025 
10.128283026726379 
10.18300165158289 
10.237918527360922 
10.29303581724697 
10.348355692321888 
10.403880331646398 
10.459611922346927 
10.515552659701756 
10.57170474722749 
10.628070396765864 
10.684651828570866 
10.741451271396176 
10.798470962582986 
10.855713148148105 
10.913180082872444 
10.97087403038982 
11.02879726327614 
11.0869520631389 
11.145340720707061 
11.203965535921288 
11.262828818024545 
11.321932885653055 
11.38128006692762 
11.440872699545341 
11.500713130871706 
11.560803718033029 
11.621146828009309 
11.681744837727486 
11.742600134155033 
11.803715114394006 
11.865092185775456 
11.926733765954253 
11.988642283004324 
12.050820175514287 
12.113269892683519 
12.175993894418614 
12.238994651430296 
12.302274645330732 
12.365836368731284 
12.429682325340696 
12.493815030063713 
12.558237009100141 
12.622950800044368 
12.687958951985296 
12.753264025606772 
12.818868593288446 
12.8847752392071 
12.950986559438435 
13.017505162059328 
13.08433366725058 
13.1514747074001 
13.218930927206625 
13.286704983783872 
13.354799546765216 
13.423217298408838 
13.491960933703384 
13.561033160474123 
13.630436699489612 
13.700174284568844 
13.770248662688969 
13.840662594093475 
13.91141885240092 
13.982520224714191 
14.053969511730278 
14.1257695278506 
14.197923101291863 
14.270433074197465 
14.343302302749459 
14.41653365728103 
14.490130022389591 
14.564094297050389 
14.638429394730698 
14.713138243504588 
14.788223786168254 
14.863688980355938 
14.939536798656427 
15.015770228730153 
15.092392273426867 
15.169405950903931 
15.246814294745189 
15.324620354080478 
15.402827193705736 
15.481437894203692 
15.560455552065248 
15.639883279811437 
15.719724206116025 
15.799981475928744 
15.880658250599181 
15.961757708001306 
16.043283042658643 
16.1252374658701 
16.20762420583647 
16.290446507787586 
16.37370763411016 
16.457410864476284 
16.54155949597259 
16.626156843230174 
16.71120623855512 
16.796711032059797 
16.88267459179476 
16.969100303881486 
17.055991572645713 
17.143351820751544 
17.23118448933628 
17.31949303814595 
17.408280945671592 
17.4975517092863 
17.587308845382935 
17.677555889512693 
17.76829639652432 
17.85953394070418 
17.951272115917014 
18.043514535747534 
18.136264833642723 
18.22952666305501 
18.323303697586127 
18.417599631131836 
18.512418178027445 
18.60776307319411 
18.703638072285933 
18.80004695183792 
18.89699350941474 
18.99448156376028 
19.092514954948122 
19.19109754453276 
19.290233215701704 
19.389925873428496 
19.490179444626442 
19.590997878303373 
19.692385145717147 
19.7943452405321 
19.896882178976355 
20.000000000000007 
0.0 
0.08265013547805022 
0.16418285980342961 
0.24461689067221215 
0.3239706935503399 
0.4022624859127859 
0.4795102414257917 
0.5557316940731347 
0.6309443422273633 
0.7051654526669546 
0.7784120645402863 
0.8507009932773766 
0.9220488344502389 
0.9924719675827705 
1.061986559911063 
1.1306085700949335 
1.1983537518816303 
1.2652376577224378 
1.3312756423431136 
1.3964828662689022 
1.4608742993049937 
1.5244647239731726 
1.5872687389054878 
1.6493007621957032 
1.7105750347092918 
1.7711056233527627 
1.8309064243030324 
1.889991166197607 
1.9483734132863142 
2.0060665685452754 
2.063083876753869 
2.1194384275353753 
2.17514315836199 
2.2302108575249227 
2.2846541670702365 
2.33848558570112 
2.3917174716472527 
2.4443620455019097 
2.4964313930274855 
2.547937467930055 
2.5988920946036154 
2.6493069708446497 
2.699193670537621 
2.748563646312022 
2.7974282321715855 
2.845798646096266 
2.8936859926175815 
2.9411012653679114 
2.9880553496043376 
3.0345590247076 
3.080622966656753 
3.126257750480077 
3.1714738526828192 
3.216281653652314 
3.260691440041035 
3.3047134071281334 
3.348357661159999 
3.391634221670374 
3.434553023780567 
3.4771239204802917 
3.519356684889638 
3.5612610125027193 
3.602846523413494 
3.6441227645242735 
3.6850992117374384 
3.7257852721308398 
3.766190286117416 
3.8063235295894904 
3.8461942160482705 
3.885811498719014 
3.925184472652358 
3.964322176812301 
4.003233596151298 
4.041927663672964 
4.080413262482849 
4.118699227827754 
4.15679434912407 
4.194707371975579 
4.232447000181219 
4.270021897733227 
4.3074406908061675 
4.344711969737257 
4.381844290998481 
4.418846179160921 
4.455726128851768 
4.492492606704454 
4.529154053302366 
4.565718885116568 
4.602195496438 
4.638592261304575 
4.674917535423632 
4.711179658090178 
4.747386954101366 
4.783547735667636 
4.819670304320979 
4.855762952820743 
4.891833967057418 
4.927891627954858 
4.963944213371353 
5.0 
5.044808483970407 
5.089612824426381 
5.134414786219673 
5.179216134108339 
5.224018632826254 
5.268824047152624 
5.313634141981502 
5.358450682391302 
5.403275433714338 
5.448110161606351 
5.4929566321160594 
5.5378166117547245 
5.582691867565738 
5.627584167194223 
5.67249527895666 
5.717426971910542 
5.762381015924064 
5.807359181745828 
5.852363241074604 
5.897394966629107 
5.942456132217834 
5.98754851280893 
6.032673884600105 
6.077834025088595 
6.12303071314119 
6.168265729064287 
6.213540854674032 
6.258857873366495 
6.304218570187922 
6.349624731905058 
6.395078147075507 
6.440580606118203 
6.486133901383926 
6.531739827225906 
6.577400180070501 
6.623116758487956 
6.668891363263256 
6.714725797467057 
6.760621866526705 
6.806581378297355 
6.852606143133183 
6.8986979739587 
6.944858686340153 
6.99109009855705 
7.037394031673781 
7.083772309611347 
7.130226759219207 
7.176759210347233 
7.223371495917796 
7.270065451997963 
7.316842917871815 
7.3637057361129 
7.4106557526568135 
7.457694816873911 
7.50482478164215 
7.552047503420081 
7.59936484231997 
7.646778662181069 
7.694290830643039 
7.741903219219505 
7.789617703371786 
7.837436162582765 
7.885360480430923 
7.933392544664532 
7.9815342472760165 
8.02978748457648 
8.078154157270394 
8.126636170530478 
8.175235434072736 
8.223953862231685 
8.27279337403576 
8.321755893282901 
8.370843348616336 
8.420057673600558 
8.46940080679747 
8.51887469184276 
8.568481277522459 
8.618222517849695 
8.668100372141675 
8.718116805096859 
8.768273786872342 
8.818573293161467 
8.869017305271647 
8.919607810202406 
8.970346800723643 
9.021236275454148 
9.072278238940298 
9.123474701735041 
9.174827680477083 
9.226339197970322 
9.278011283263528 
9.329845971730263 
9.381845305149072 
9.434011331783886 
9.486346106464719 
9.538851690668604 
9.591530152600797 
9.644383567276233 
9.697414016601279 
9.750623589455724 
9.80401438177508 
9.857588496633111 
9.911348044324708 
9.965295142448987 
10.019431915992719 
10.073760497414025 
10.128283026726379 
10.18300165158289 
10.237918527360922 
10.29303581724697 
10.348355692321888 
10.403880331646398 
10.459611922346927 
10.515552659701756 
10.57170474722749 
10.628070396765864 
10.684651828570866 
10.741451271396176 
10.798470962582986 
10.855713148148105 
10.913180082872444 
10.97087403038982 
11.02879726327614 
11.0869520631389 
11.145340720707061 
11.203965535921288 
11.262828818024545 
11.321932885653055 
11.38128006692762 
11.440872699545341 
11.500713130871706 
11.560803718033029 
11.621146828009309 
11.681744837727486 
11.742600134155033 
11.803715114394006 
11.865092185775456 
11.926733765954253 
11.988642283004324 
12.050820175514287 
12.113269892683519 
12.175993894418614 
12.238994651430296 
12.302274645330732 
12.365836368731284 
12.429682325340696 
12.493815030063713 
12.558237009100141 
12.622950800044368 
12.687958951985296 
12.753264025606772 
12.818868593288446 
12.8847752392071 
12.950986559438435 
13.017505162059328 
13.08433366725058 
13.1514747074001 
13.218930927206625 
13.286704983783872 
13.354799546765216 
13.423217298408838 
13.491960933703384 
13.561033160474123 
13.630436699489612 
13.700174284568844 
13.770248662688969 
13.840662594093475 
13.91141885240092 
13.982520224714191 
14.053969511730278 
14.1257695278506 
14.197923101291863 
14.270433074197465 
14.343302302749459 
14.41653365728103 
14.490130022389591 
14.564094297050389 
14.638429394730698 
14.713138243504588 
14.788223786168254 
14.863688980355938 
14.939536798656427 
15.015770228730153 
15.092392273426867 
15.169405950903931 
15.246814294745189 
15.324620354080478 
15.402827193705736 
15.481437894203692 
15.560455552065248 
15.639883279811437 
15.719724206116025 
15.799981475928744 
15.880658250599181 
15.961757708001306 
16.043283042658643 
16.1252374658701 
16.20762420583647 
16.290446507787586 
16.37370763411016 
16.457410864476284 
16.54155949597259 
16.626156843230174 
16.71120623855512 
16.796711032059797 
16.88267459179476 
16.969100303881486 
17.055991572645713 
17.143351820751544 
17.23118448933628 
17.31949303814595 
17.408280945671592 
17.4975517092863 
17.587308845382935 
17.677555889512693 
17.76829639652432 
17.85953394070418 
17.951272115917014 
18.043514535747534 
18.136264833642723 
18.22952666305501 
18.323303697586127 
18.417599631131836 
18.512418178027445 
18.60776307319411 
18.703638072285933 
18.80004695183792 
18.89699350941474 
18.99448156376028 
19.092514954948122 
19.19109754453276 
19.290233215701704 
19.389925873428496 
19.490179444626442 
19.590997878303373 
19.692385145717147 
19.7943452405321 
19.896882178976355 
20.000000000000007 
0.0 
0.08265013547805022 
0.16418285980342961 
0.24461689067221215 
0.3239706935503399 
0.4022624859127859 
0.4795102414257917 
0.5557316940731347 
0.6309443422273633 
0.7051654526669546 
0.7784120645402863 
0.8507009932773766 
0.9220488344502389 
0.9924719675827705 
1.061986559911063 
1.1306085700949335 
1.1983537518816303 
1.2652376577224378 
1.3312756423431136 
1.3964828662689022 
1.4608742993049937 
1.5244647239731726 
1.5872687389054878 
1.6493007621957032 
1.7105750347092918 
1.7711056233527627 
1.8309064243030324 
1.889991166197607 
1.9483734132863142 
2.0060665685452754 
2.063083876753869 
2.1194384275353753 
2.17514315836199 
2.2302108575249227 
2.2846541670702365 
2.33848558570112 
2.3917174716472527 
2.4443620455019097 
2.4964313930274855 
2.547937467930055 
2.5988920946036154 
2.6493069708446497 
2.699193670537621 
2.748563646312022 
2.7974282321715855 
2.845798646096266 
2.8936859926175815 
2.9411012653679114 
2.9880553496043376 
3.0345590247076 
3.080622966656753 
3.126257750480077 
3.1714738526828192 
3.216281653652314 
3.260691440041035 
3.3047134071281334 
3.348357661159999 
3.391634221670374 
3.434553023780567 
3.4771239204802917 
3.519356684889638 
3.5612610125027193 
3.602846523413494 
3.6441227645242735 
3.6850992117374384 
3.7257852721308398 
3.766190286117416 
3.8063235295894904 
3.8461942160482705 
3.885811498719014 
3.925184472652358 
3.964322176812301 
4.003233596151298 
4.041927663672964 
4.080413262482849 
4.118699227827754 
4.15679434912407 
4.194707371975579 
4.232447000181219 
4.270021897733227 
4.3074406908061675 
4.344711969737257 
4.381844290998481 
4.418846179160921 
4.455726128851768 
4.492492606704454 
4.529154053302366 
4.565718885116568 
4.602195496438 
4.638592261304575 
4.674917535423632 
4.711179658090178 
4.747386954101366 
4.783547735667636 
4.819670304320979 
4.855762952820743 
4.891833967057418 
4.927891627954858 
4.963944213371353 
5.0 
5.044808483970407 
5.089612824426381 
5.134414786219673 
5.179216134108339 
5.224018632826254 
5.268824047152624 
5.313634141981502 
5.358450682391302 
5.403275433714338 
5.448110161606351 
5.4929566321160594 
5.5378166117547245 
5.582691867565738 
5.627584167194223 
5.67249527895666 
5.717426971910542 
5.762381015924064 
5.807359181745828 
5.852363241074604 
5.897394966629107 
5.942456132217834 
5.98754851280893 
6.032673884600105 
6.077834025088595 
6.12303071314119 
6.168265729064287 
6.213540854674032 
6.258857873366495 
6.304218570187922 
6.349624731905058 
6.395078147075507 
6.440580606118203 
6.486133901383926 
6.531739827225906 
6.577400180070501 
6.623116758487956 
6.668891363263256 
6.714725797467057 
6.760621866526705 
6.806581378297355 
6.852606143133183 
6.8986979739587 
6.944858686340153 
6.99109009855705 
7.037394031673781 
7.083772309611347 
7.130226759219207 
7.176759210347233 
7.223371495917796 
7.270065451997963 
7.316842917871815 
7.3637057361129 
7.4106557526568135 
7.457694816873911 
7.50482478164215 
7.552047503420081 
7.59936484231997 
7.646778662181069 
7.694290830643039 
7.741903219219505 
7.789617703371786 
7.837436162582765 
7.885360480430923 
7.933392544664532 
7.9815342472760165 
8.02978748457648 
8.078154157270394 
8.126636170530478 
8.175235434072736 
8.223953862231685 
8.27279337403576 
8.321755893282901 
8.370843348616336 
8.420057673600558 
8.46940080679747 
8.51887469184276 
8.568481277522459 
8.618222517849695 
8.668100372141675 
8.718116805096859 
8.768273786872342 
8.818573293161467 
8.869017305271647 
8.919607810202406 
8.970346800723643 
9.021236275454148 
9.072278238940298 
9.123474701735041 
9.174827680477083 
9.226339197970322 
9.278011283263528 
9.329845971730263 
9.381845305149072 
9.434011331783886 
9.486346106464719 
9.538851690668604 