VARIABLES="x","y" 
ZONE NODES=57180, ELEMENTS=56538, DATAPACKING=BLOCK, ZONETYPE=FEQUADRILATERAL
0.0 
0.05504069767862951 
0.1095853027737288 
0.1636393432524068 
0.21720829736421354 
0.2702975941963368 
0.322912614223835 
0.3750586898549244 
0.4267411059714208 
0.47796510046433216 
0.5287358647647187 
0.5790585443698371 
0.6289382393646052 
0.6783800049385009 
0.7273888518978868 
0.7759697471738463 
0.824127614325568 
0.8718673340393339 
0.9191937446231764 
0.9661116424972116 
1.0126257826797702 
1.058740879269279 
1.1044616059220451 
1.1497925963259084 
1.1947384446698632 
1.2393037061096641 
1.2834928972294732 
1.3273104964996199 
1.3707609447304745 
1.4138486455225139 
1.4565779657126163 
1.4989532358166322 
1.5409787504682702 
1.582658768854349 
1.6239975151464567 
1.6649991789290581 
1.7056679156240975 
1.7460078469121498 
1.7860230611501322 
1.825717613785658 
1.8650955277680397 
1.904160793956013 
1.9429173715221926 
1.981369188354332 
2.0195201414534036 
2.057374097328546 
2.094934892388933 
2.1322063333325807 
2.1691921975321455 
2.2058962334177563 
2.242322160856906 
2.2784736715314526 
2.314354429311763 
2.3499680706280333 
2.385318204838839 
2.42040841459693 
2.4552422562123284 
2.4898232600127472 
2.524154930701382 
2.5582407477121083 
2.5920841655621096 
2.625688614201986 
2.6590574993633718 
2.6921942029040977 
2.725102083150935 
2.7577844752399545 
2.7902446914545327 
2.8224860215610446 
2.8545117331422754 
2.886325071928582 
2.917929262126837 
2.949327506747199 
2.980522987927726 
3.011518867256881 
3.042318286093948 
3.072924365887406 
3.103340208491276 
3.1335688964794883 
3.163613493458296 
3.1934770443767593 
3.2231625758353504 
3.2526730963926873 
3.2820115968704453 
3.311181050656472 
3.3401844140061296 
3.3690246263419086 
3.3977046105513242 
3.426227273283155 
3.454595505242014 
3.4828121814813224 
3.510880161694684 
3.5388022905057133 
3.5665813977563277 
3.594220298793547 
3.6217217947548224 
3.6490886728519243 
3.6763237066534193 
3.703429656365766 
3.7304092691130553 
3.7572652792154244 
3.7840004084661745 
3.810617366407615 
3.837118850605676 
3.8635075469232905 
3.8897861297926113 
3.9159572624860486 
3.9420235973861937 
3.9679877762546267 
3.9938524304996554 
4.019620181443002 
4.0452936405854665 
4.070875409871597 
4.096368081953394 
4.121774240453064 
4.147096460224864 
4.172337307616063 
4.1974993407270285 
4.222585109670487 
4.247597156829971 
4.272538017117486 
4.297410218230413 
4.322216280907689 
4.346958719185278 
4.371640040650958 
4.396262746698465 
4.420829332780999 
4.445342288664134 
4.469804098678149 
4.494217241969813 
4.518584192753634 
4.54290742056262 
4.567189390498557 
4.5914325634818445 
4.615639396500902 
4.6398123428611795 
4.663953852433792 
4.688066371903814 
4.712152345018236 
4.736214212833644 
4.760254413963605 
4.78427538482582 
4.808279559889047 
4.832269371919828 
4.85624725222905 
4.880215630918342 
4.904176937126373 
4.928133599275026 
4.9520880453155245 
4.976042702974492 
5.0 
5.029831266109702 
5.0596604343147895 
5.089488025372598 
5.119314560012929 
5.149140558947138 
5.1789665428772365 
5.208793032504963 
5.238620548540894 
5.2684496117135176 
5.2982807427783385 
5.3281144625269565 
5.357951291796169 
5.387791751477058 
5.417636362524086 
5.4474856459641865 
5.477340122905868 
5.507200314548304 
5.537066742190437 
5.566939927240079 
5.596820391223009 
5.626708655792082 
5.6566052427363385 
5.686510673990109 
5.716425471642127 
5.746350157944649 
5.77628525532256 
5.806231286382508 
5.836188773922019 
5.866158240938624 
5.896140210638994 
5.926135206448073 
5.95614375201821 
5.98616637123831 
6.016203588242973 
6.04625592742165 
6.076323913427792 
6.106408071188013 
6.136508925911252 
6.166627003097945 
6.1967628285492 
6.226916928375968 
6.257089829008239 
6.287282057204225 
6.31749414005956 
6.347726605016497 
6.377979979873126 
6.408254792792573 
6.438551572312239 
6.468870847353009 
6.499213147228501 
6.529579001654295 
6.5599689407571935 
6.590383495084461 
6.6208231956131 
6.6512885737591105 
6.6817801613867776 
6.712298490817947 
6.742844094841325 
6.773417506721774 
6.80401926020963 
6.834649889550015 
6.865309929492164 
6.895999915298763 
6.926720382755292 
6.957471868179382 
6.988254908430171 
7.0190700409176845 
7.049917803612212 
7.080798735053703 
7.111713374361163 
7.142662261242075 
7.173645936001806 
7.2046649395530595 
7.235719813425306 
7.266811099774237 
7.297939341391232 
7.329105081712839 
7.360308864830259 
7.391551235498838 
7.4228327391475855 
7.454153921888697 
7.485515330527083 
7.516917512569918 
7.548361016236196 
7.579846390466308 
7.6113741849316146 
7.642944950044053 
7.674559236965743 
7.706217597618602 
7.737920584693992 
7.76966875166236 
7.8014626527829005 
7.833302843113239 
7.865189878519117 
7.897124315684096 
7.929106712119273 
7.961137626173022 
7.993217617040738 
8.025347244774597 
8.057527070293334 
8.089757655392035 
8.12203956275195 
8.154373355950312 
8.186759599470177 
8.219198858710271 
8.251691699994877 
8.28423869058371 
8.316840398681823 
8.349497393449523 
8.382210245012315 
8.414979524470855 
8.447805803910907 
8.480689656413348 
8.513631656064163 
8.546632377964468 
8.579692398240555 
8.612812294053938 
8.645992643611448 
8.679234026175312 
8.712537022073269 
8.745902212708707 
8.779330180570806 
8.81282150924471 
8.846376783421722 
8.879996588909494 
8.91368151264227 
8.947432142691135 
8.98124906827426 
9.015132879767219 
9.04908416871326 
9.083103527833675 
9.117191551038104 
9.151348833434934 
9.18557597134168 
9.219873562295385 
9.254242205063068 
9.288682499652174 
9.323195047321027 
9.357780450589363 
9.392439313248826 
9.427172240373505 
9.461979838330517 
9.496862714790574 
9.5318214787386 
9.566856740484369 
9.601969111673139 
9.637159205296362 
9.672427635702352 
9.707775018607034 
9.743201971104686 
9.7787091116787 
9.814297060212404 
9.849966437999868 
9.885717867756746 
9.92155197363116 
9.95746938121459 
9.9934707175528 
10.029556611156774 
10.065727692013695 
10.101984591597958 
10.138327942882166 
10.1747583803482 
10.211276539998298 
10.247883059366133 
10.28457857752798 
10.321363735113849 
10.358239174318658 
10.39520553891349 
10.43226347425678 
10.46941362730561 
10.506656646627 
10.543993182409228 
10.581423886473182 
10.618949412283737 
10.656570414961163 
10.694287551292572 
10.732101479743369 
10.770012860468757 
10.808022355325267 
10.846130627882285 
10.884338343433686 
10.922646169009397 
10.961054773387072 
10.99956482710377 
11.038177002467634 
11.076891973569655 
11.115710416295439 
11.154633008336976 
11.193660429204524 
11.232793360238414 
11.27203248462099 
11.311378487388513 
11.350832055443117 
11.39039387756483 
11.43006464442356 
11.469845048591177 
11.509735784553603 
11.549737548722923 
11.58985103944956 
11.630076957034454 
11.670416003741284 
11.710868883808757 
11.75143630346286 
11.79211897092922 
11.832917596445466 
11.873832892273605 
11.914865572712486 
11.95601635411026 
11.997285954876869 
12.038675095496618 
12.080184498540726 
12.121814888679959 
12.163566992697277 
12.2054415395005 
12.247439260135089 
12.289560887796837 
12.331807157844722 
12.374178807813731 
12.416676577427722 
12.45930120861235 
12.50205344550803 
12.544934034482896 
12.587943724145877 
12.631083265359713 
12.674353411254112 
12.71775491723887 
12.76128854101706 
12.80495504259828 
12.848755184311894 
12.892689730820361 
12.93675944913258 
12.980965108617273 
13.025307481016418 
13.069787340458742 
13.114405463473194 
13.159162629002557 
13.204059618416988 
13.24909721552771 
13.294276206600662 
13.33959738037024 
13.385061528053068 
13.430669443361808 
13.476421922518997 
13.522319764271003 
13.568363769901895 
13.614554743247485 
13.66089349070936 
13.707380821268924 
13.754017546501549 
13.80080448059075 
13.847742440342367 
13.894832245198867 
13.94207471725361 
13.98947068126522 
14.037020964672 
14.084726397606321 
14.132587812909208 
14.180606046144772 
14.228781935614885 
14.277116322373761 
14.325610050242666 
14.374263965824642 
14.42307891851929 
14.472055760537573 
14.521195346916755 
14.570498535535256 
14.619966187127675 
14.669599165299806 
14.719398336543707 
14.769364570252842 
14.819498738737241 
14.869801717238737 
14.920274383946259 
14.970917620011138 
15.021732309562505 
15.07271933972274 
15.123879600622908 
15.175213985418386 
15.226723390304356 
15.27840871453152 
15.330270860421788 
15.382310733384 
15.434529241929768 
15.486927297689325 
15.539505815427413 
15.592265713059316 
15.645207911666807 
15.698333335514297 
15.751642912064927 
15.80513757199678 
15.858818249219118 
15.912685880888695 
15.966741407426115 
16.020985772532242 
16.0754199232047 
16.130044809754352 
16.18486138582197 
16.239870608394803 
16.29507343782334 
16.350470837838053 
16.406063775566224 
16.46185322154884 
16.517840149757507 
16.574025537611494 
16.63041036599477 
16.686995619273116 
16.74378228531137 
16.80077135549059 
16.85796382472543 
16.915360691481474 
16.972962957792674 
17.030771629278853 
17.088787715163242 
17.147012228290116 
17.205446185142478 
17.264090605859792 
17.32294651425579 
17.382014937836367 
17.44129690781751 
17.500793459143267 
17.56050563050388 
17.620434464353863 
17.680581006930232 
17.74094630827075 
17.80153142223228 
17.86233740650917 
17.923365322651705 
17.984616236084676 
18.046091216125937 
18.107791336005107 
18.1697176728823 
18.231871307866918 
18.294253326036515 
18.356864816455783 
18.419706872195526 
18.48278059035175 
18.546087072064843 
18.609627422538743 
18.673402751060294 
18.737414171018578 
18.801662799924344 
18.866149759429554 
18.930876175346935 
18.995843177669634 
19.061051900590975 
19.126503482524207 
19.19219906612243 
19.258139798298522 
19.324326830245166 
19.390761317454917 
19.457444419740433 
19.52437730125468 
19.59156113051127 
19.658997080404852 
19.726686328231594 
19.794630055709746 
19.862829449000266 
19.9312856987275 
20.000000000000007 
0.0 
0.05504069767862951 
0.1095853027737288 
0.1636393432524068 
0.21720829736421354 
0.2702975941963368 
0.322912614223835 
0.3750586898549244 
0.4267411059714208 
0.47796510046433216 
0.5287358647647187 
0.5790585443698371 
0.6289382393646052 
0.6783800049385009 
0.7273888518978868 
0.7759697471738463 
0.824127614325568 
0.8718673340393339 
0.9191937446231764 
0.9661116424972116 
1.0126257826797702 
1.058740879269279 
1.1044616059220451 
1.1497925963259084 
1.1947384446698632 
1.2393037061096641 
1.2834928972294732 
1.3273104964996199 
1.3707609447304745 
1.4138486455225139 
1.4565779657126163 
1.4989532358166322 
1.5409787504682702 
1.582658768854349 
1.6239975151464567 
1.6649991789290581 
1.7056679156240975 
1.7460078469121498 
1.7860230611501322 
1.825717613785658 
1.8650955277680397 
1.904160793956013 
1.9429173715221926 
1.981369188354332 
2.0195201414534036 
2.057374097328546 
2.094934892388933 
2.1322063333325807 
2.1691921975321455 
2.2058962334177563 
2.242322160856906 
2.2784736715314526 
2.314354429311763 
2.3499680706280333 
2.385318204838839 
2.42040841459693 
2.4552422562123284 
2.4898232600127472 
2.524154930701382 
2.5582407477121083 
2.5920841655621096 
2.625688614201986 
2.6590574993633718 
2.6921942029040977 
2.725102083150935 
2.7577844752399545 
2.7902446914545327 
2.8224860215610446 
2.8545117331422754 
2.886325071928582 
2.917929262126837 
2.949327506747199 
2.980522987927726 
3.011518867256881 
3.042318286093948 
3.072924365887406 
3.103340208491276 
3.1335688964794883 
3.163613493458296 
3.1934770443767593 
3.2231625758353504 
3.2526730963926873 
3.2820115968704453 
3.311181050656472 
3.3401844140061296 
3.3690246263419086 
3.3977046105513242 
3.426227273283155 
3.454595505242014 
3.4828121814813224 
3.510880161694684 
3.5388022905057133 
3.5665813977563277 
3.594220298793547 
3.6217217947548224 
3.6490886728519243 
3.6763237066534193 
3.703429656365766 
3.7304092691130553 
3.7572652792154244 
3.7840004084661745 
3.810617366407615 
3.837118850605676 
3.8635075469232905 
3.8897861297926113 
3.9159572624860486 
3.9420235973861937 
3.9679877762546267 
3.9938524304996554 
4.019620181443002 
4.0452936405854665 
4.070875409871597 
4.096368081953394 
4.121774240453064 
4.147096460224864 
4.172337307616063 
4.1974993407270285 
4.222585109670487 
4.247597156829971 
4.272538017117486 
4.297410218230413 
4.322216280907689 
4.346958719185278 
4.371640040650958 
4.396262746698465 
4.420829332780999 
4.445342288664134 
4.469804098678149 
4.494217241969813 
4.518584192753634 
4.54290742056262 
4.567189390498557 
4.5914325634818445 
4.615639396500902 
4.6398123428611795 
4.663953852433792 
4.688066371903814 
4.712152345018236 
4.736214212833644 
4.760254413963605 
4.78427538482582 
4.808279559889047 
4.832269371919828 
4.85624725222905 
4.880215630918342 
4.904176937126373 
4.928133599275026 
4.9520880453155245 
4.976042702974492 
5.0 
5.029831266109702 
5.0596604343147895 
5.089488025372598 
5.119314560012929 
5.149140558947138 
5.1789665428772365 
5.208793032504963 
5.238620548540894 
5.2684496117135176 
5.2982807427783385 
5.3281144625269565 
5.357951291796169 
5.387791751477058 
5.417636362524086 
5.4474856459641865 
5.477340122905868 
5.507200314548304 
5.537066742190437 
5.566939927240079 
5.596820391223009 
5.626708655792082 
5.6566052427363385 
5.686510673990109 
5.716425471642127 
5.746350157944649 
5.77628525532256 
5.806231286382508 
5.836188773922019 
5.866158240938624 
5.896140210638994 
5.926135206448073 
5.95614375201821 
5.98616637123831 
6.016203588242973 
6.04625592742165 
6.076323913427792 
6.106408071188013 
6.136508925911252 
6.166627003097945 
6.1967628285492 
6.226916928375968 
6.257089829008239 
6.287282057204225 
6.31749414005956 
6.347726605016497 
6.377979979873126 
6.408254792792573 
6.438551572312239 
6.468870847353009 
6.499213147228501 
6.529579001654295 
6.5599689407571935 
6.590383495084461 
6.6208231956131 
6.6512885737591105 
6.6817801613867776 
6.712298490817947 
6.742844094841325 
6.773417506721774 
6.80401926020963 
6.834649889550015 
6.865309929492164 
6.895999915298763 
6.926720382755292 
6.957471868179382 
6.988254908430171 
7.0190700409176845 
7.049917803612212 
7.080798735053703 
7.111713374361163 
7.142662261242075 
7.173645936001806 
7.2046649395530595 
7.235719813425306 
7.266811099774237 
7.297939341391232 
7.329105081712839 
7.360308864830259 
7.391551235498838 
7.4228327391475855 
7.454153921888697 
7.485515330527083 
7.516917512569918 
7.548361016236196 
7.579846390466308 
7.6113741849316146 
7.642944950044053 
7.674559236965743 
7.706217597618602 
7.737920584693992 
7.76966875166236 
7.8014626527829005 
7.833302843113239 
7.865189878519117 
7.897124315684096 
7.929106712119273 
7.961137626173022 
7.993217617040738 
8.025347244774597 
8.057527070293334 
8.089757655392035 
8.12203956275195 
8.154373355950312 
8.186759599470177 
8.219198858710271 
8.251691699994877 
8.28423869058371 
8.316840398681823 
8.349497393449523 
8.382210245012315 
8.414979524470855 
8.447805803910907 
8.480689656413348 
8.513631656064163 
8.546632377964468 
8.579692398240555 
8.612812294053938 
8.645992643611448 
8.679234026175312 
8.712537022073269 
8.745902212708707 
8.779330180570806 
8.81282150924471 
8.846376783421722 
8.879996588909494 
8.91368151264227 
8.947432142691135 
8.98124906827426 
9.015132879767219 
9.04908416871326 
9.083103527833675 
9.117191551038104 
9.151348833434934 
9.18557597134168 
9.219873562295385 
9.254242205063068 
9.288682499652174 
9.323195047321027 
9.357780450589363 
9.392439313248826 
9.427172240373505 
9.461979838330517 
9.496862714790574 
9.5318214787386 
9.566856740484369 
9.601969111673139 
9.637159205296362 
9.672427635702352 
9.707775018607034 
9.743201971104686 
9.7787091116787 
9.814297060212404 
9.849966437999868 
9.885717867756746 
9.92155197363116 
9.95746938121459 
9.9934707175528 
10.029556611156774 
10.065727692013695 
10.101984591597958 
10.138327942882166 
10.1747583803482 
10.211276539998298 
10.247883059366133 
10.28457857752798 
10.321363735113849 
10.358239174318658 
10.39520553891349 
10.43226347425678 
10.46941362730561 
10.506656646627 
10.543993182409228 
10.581423886473182 
10.618949412283737 
10.656570414961163 
10.694287551292572 
10.732101479743369 
10.770012860468757 
10.808022355325267 
10.846130627882285 
10.884338343433686 
10.922646169009397 
10.961054773387072 
10.99956482710377 
11.038177002467634 
11.076891973569655 
11.115710416295439 
11.154633008336976 
11.193660429204524 
11.232793360238414 
11.27203248462099 
11.311378487388513 
11.350832055443117 
11.39039387756483 
11.43006464442356 
11.469845048591177 
11.509735784553603 
11.549737548722923 
11.58985103944956 
11.630076957034454 
11.670416003741284 
11.710868883808757 
11.75143630346286 
11.79211897092922 
11.832917596445466 
11.873832892273605 
11.914865572712486 
11.95601635411026 
11.997285954876869 
12.038675095496618 
12.080184498540726 
12.121814888679959 
12.163566992697277 
12.2054415395005 
12.247439260135089 
12.289560887796837 
12.331807157844722 
12.374178807813731 
12.416676577427722 
12.45930120861235 
12.50205344550803 
12.544934034482896 
12.587943724145877 
12.631083265359713 
12.674353411254112 
12.71775491723887 
12.76128854101706 
12.80495504259828 
12.848755184311894 
12.892689730820361 
12.93675944913258 
12.980965108617273 
13.025307481016418 
13.069787340458742 
13.114405463473194 
13.159162629002557 
13.204059618416988 
13.24909721552771 
13.294276206600662 
13.33959738037024 
13.385061528053068 
13.430669443361808 
13.476421922518997 
13.522319764271003 
13.568363769901895 
13.614554743247485 
13.66089349070936 
13.707380821268924 
13.754017546501549 
13.80080448059075 
13.847742440342367 
13.894832245198867 
13.94207471725361 
13.98947068126522 
14.037020964672 
14.084726397606321 
14.132587812909208 
14.180606046144772 
14.228781935614885 
14.277116322373761 
14.325610050242666 
14.374263965824642 
14.42307891851929 
14.472055760537573 
14.521195346916755 
14.570498535535256 
14.619966187127675 
14.669599165299806 
14.719398336543707 
14.769364570252842 
14.819498738737241 
14.869801717238737 
14.920274383946259 
14.970917620011138 
15.021732309562505 
15.07271933972274 
15.123879600622908 
15.175213985418386 
15.226723390304356 
15.27840871453152 
15.330270860421788 
15.382310733384 
15.434529241929768 
15.486927297689325 
15.539505815427413 
15.592265713059316 
15.645207911666807 
15.698333335514297 
15.751642912064927 
15.80513757199678 
15.858818249219118 
15.912685880888695 
15.966741407426115 
16.020985772532242 
16.0754199232047 
16.130044809754352 
16.18486138582197 
16.239870608394803 
16.29507343782334 
16.350470837838053 
16.406063775566224 
16.46185322154884 
16.517840149757507 
16.574025537611494 
16.63041036599477 
16.686995619273116 
16.74378228531137 
16.80077135549059 
16.85796382472543 
16.915360691481474 
16.972962957792674 
17.030771629278853 
17.088787715163242 
17.147012228290116 
17.205446185142478 
17.264090605859792 
17.32294651425579 
17.382014937836367 
17.44129690781751 
17.500793459143267 
17.56050563050388 
17.620434464353863 
17.680581006930232 
17.74094630827075 
17.80153142223228 
17.86233740650917 
17.923365322651705 
17.984616236084676 
18.046091216125937 
18.107791336005107 
18.1697176728823 
18.231871307866918 
18.294253326036515 
18.356864816455783 
18.419706872195526 
18.48278059035175 
18.546087072064843 
18.609627422538743 
18.673402751060294 
18.737414171018578 
18.801662799924344 
18.866149759429554 
18.930876175346935 
18.995843177669634 
19.061051900590975 
19.126503482524207 
19.19219906612243 
19.258139798298522 
19.324326830245166 
19.390761317454917 
19.457444419740433 
19.52437730125468 
19.59156113051127 
19.658997080404852 
19.726686328231594 
19.794630055709746 
19.862829449000266 
19.9312856987275 
20.000000000000007 
0.0 
0.05504069767862951 
0.1095853027737288 
0.1636393432524068 
0.21720829736421354 
0.2702975941963368 
0.322912614223835 
0.3750586898549244 
0.4267411059714208 
0.47796510046433216 
0.5287358647647187 
0.5790585443698371 
0.6289382393646052 
0.6783800049385009 
0.7273888518978868 
0.7759697471738463 
0.824127614325568 
0.8718673340393339 
0.9191937446231764 
0.9661116424972116 
1.0126257826797702 
1.058740879269279 
1.1044616059220451 
1.1497925963259084 
1.1947384446698632 
1.2393037061096641 
1.2834928972294732 
1.3273104964996199 
1.3707609447304745 
1.4138486455225139 
1.4565779657126163 
1.4989532358166322 
1.5409787504682702 
1.582658768854349 
1.6239975151464567 
1.6649991789290581 
1.7056679156240975 
1.7460078469121498 
1.7860230611501322 
1.825717613785658 
1.8650955277680397 
1.904160793956013 
1.9429173715221926 
1.981369188354332 
2.0195201414534036 
2.057374097328546 
2.094934892388933 
2.1322063333325807 
2.1691921975321455 
2.2058962334177563 
2.242322160856906 
2.2784736715314526 
2.314354429311763 
2.3499680706280333 
2.385318204838839 
2.42040841459693 
2.4552422562123284 
2.4898232600127472 
2.524154930701382 
2.5582407477121083 
2.5920841655621096 
2.625688614201986 
2.6590574993633718 
2.6921942029040977 
2.725102083150935 
2.7577844752399545 
2.7902446914545327 
2.8224860215610446 
2.8545117331422754 
2.886325071928582 
2.917929262126837 
2.949327506747199 
2.980522987927726 
3.011518867256881 
3.042318286093948 
3.072924365887406 
3.103340208491276 
3.1335688964794883 
3.163613493458296 
3.1934770443767593 
3.2231625758353504 
3.2526730963926873 
3.2820115968704453 
3.311181050656472 
3.3401844140061296 
3.3690246263419086 
3.3977046105513242 
3.426227273283155 
3.454595505242014 
3.4828121814813224 
3.510880161694684 
3.5388022905057133 
3.5665813977563277 
3.594220298793547 
3.6217217947548224 
3.6490886728519243 
3.6763237066534193 
3.703429656365766 
3.7304092691130553 
3.7572652792154244 
3.7840004084661745 
3.810617366407615 
3.837118850605676 
3.8635075469232905 
3.8897861297926113 
3.9159572624860486 
3.9420235973861937 
3.9679877762546267 
3.9938524304996554 
4.019620181443002 
4.0452936405854665 
4.070875409871597 
4.096368081953394 
4.121774240453064 
4.147096460224864 
4.172337307616063 
4.1974993407270285 
4.222585109670487 
4.247597156829971 
4.272538017117486 
4.297410218230413 
4.322216280907689 
4.346958719185278 
4.371640040650958 
4.396262746698465 
4.420829332780999 
4.445342288664134 
4.469804098678149 
4.494217241969813 
4.518584192753634 
4.54290742056262 
4.567189390498557 
4.5914325634818445 
4.615639396500902 
4.6398123428611795 
4.663953852433792 
4.688066371903814 
4.712152345018236 
4.736214212833644 
4.760254413963605 
4.78427538482582 
4.808279559889047 
4.832269371919828 
4.85624725222905 
4.880215630918342 
4.904176937126373 
4.928133599275026 
4.9520880453155245 
4.976042702974492 
5.0 
5.029831266109702 
5.0596604343147895 
5.089488025372598 
5.119314560012929 
5.149140558947138 
5.1789665428772365 
5.208793032504963 
5.238620548540894 
5.2684496117135176 
5.2982807427783385 
5.3281144625269565 
5.357951291796169 
5.387791751477058 
5.417636362524086 
5.4474856459641865 
5.477340122905868 
5.507200314548304 
5.537066742190437 
5.566939927240079 
5.596820391223009 
5.626708655792082 
5.6566052427363385 
5.686510673990109 
5.716425471642127 
5.746350157944649 
5.77628525532256 
5.806231286382508 
5.836188773922019 
5.866158240938624 
5.896140210638994 
5.926135206448073 
5.95614375201821 
5.98616637123831 
6.016203588242973 
6.04625592742165 
6.076323913427792 
6.106408071188013 
6.136508925911252 
6.166627003097945 
6.1967628285492 
6.226916928375968 
6.257089829008239 
6.287282057204225 
6.31749414005956 
6.347726605016497 
6.377979979873126 
6.408254792792573 
6.438551572312239 
6.468870847353009 
6.499213147228501 
6.529579001654295 
6.5599689407571935 
6.590383495084461 
6.6208231956131 
6.6512885737591105 
6.6817801613867776 
6.712298490817947 
6.742844094841325 
6.773417506721774 
6.80401926020963 
6.834649889550015 
6.865309929492164 
6.895999915298763 
6.926720382755292 
6.957471868179382 
6.988254908430171 
7.0190700409176845 
7.049917803612212 
7.080798735053703 
7.111713374361163 
7.142662261242075 
7.173645936001806 
7.2046649395530595 
7.235719813425306 
7.266811099774237 
7.297939341391232 
7.329105081712839 
7.360308864830259 
7.391551235498838 
7.4228327391475855 
7.454153921888697 
7.485515330527083 
7.516917512569918 
7.548361016236196 
7.579846390466308 
7.6113741849316146 
7.642944950044053 
7.674559236965743 
7.706217597618602 
7.737920584693992 
7.76966875166236 
7.8014626527829005 
7.833302843113239 
7.865189878519117 
7.897124315684096 
7.929106712119273 
7.961137626173022 
7.993217617040738 
8.025347244774597 
8.057527070293334 
8.089757655392035 
8.12203956275195 
8.154373355950312 
8.186759599470177 
8.219198858710271 
8.251691699994877 
8.28423869058371 
8.316840398681823 
8.349497393449523 
8.382210245012315 
8.414979524470855 
8.447805803910907 
8.480689656413348 
8.513631656064163 
8.546632377964468 
8.579692398240555 
8.612812294053938 
8.645992643611448 
8.679234026175312 
8.712537022073269 
8.745902212708707 
8.779330180570806 
8.81282150924471 
8.846376783421722 
8.879996588909494 
8.91368151264227 
8.947432142691135 
8.98124906827426 
9.015132879767219 
9.04908416871326 
9.083103527833675 
9.117191551038104 
9.151348833434934 
9.18557597134168 
9.219873562295385 
9.254242205063068 
9.288682499652174 
9.323195047321027 
9.357780450589363 
9.392439313248826 
9.427172240373505 
9.461979838330517 
9.496862714790574 
9.5318214787386 
9.566856740484369 
9.601969111673139 
9.637159205296362 
9.672427635702352 
9.707775018607034 
9.743201971104686 
9.7787091116787 
9.814297060212404 
9.849966437999868 
9.885717867756746 
9.92155197363116 
9.95746938121459 
9.9934707175528 
10.029556611156774 
10.065727692013695 
10.101984591597958 
10.138327942882166 
10.1747583803482 
10.211276539998298 
10.247883059366133 
10.28457857752798 
10.321363735113849 
10.358239174318658 
10.39520553891349 
10.43226347425678 
10.46941362730561 
10.506656646627 
10.543993182409228 
10.581423886473182 
10.618949412283737 
10.656570414961163 
10.694287551292572 
10.732101479743369 
10.770012860468757 
10.808022355325267 
10.846130627882285 
10.884338343433686 
10.922646169009397 
10.961054773387072 
10.99956482710377 
11.038177002467634 
11.076891973569655 
11.115710416295439 
11.154633008336976 
11.193660429204524 
11.232793360238414 
11.27203248462099 
11.311378487388513 
11.350832055443117 
11.39039387756483 
11.43006464442356 
11.469845048591177 
11.509735784553603 
11.549737548722923 
11.58985103944956 
11.630076957034454 
11.670416003741284 
11.710868883808757 
11.75143630346286 
11.79211897092922 
11.832917596445466 
11.873832892273605 
11.914865572712486 
11.95601635411026 
11.997285954876869 
12.038675095496618 
12.080184498540726 
12.121814888679959 
12.163566992697277 
12.2054415395005 
12.247439260135089 
12.289560887796837 
12.331807157844722 
12.374178807813731 
12.416676577427722 
12.45930120861235 
12.50205344550803 
12.544934034482896 
12.587943724145877 
12.631083265359713 
12.674353411254112 
12.71775491723887 
12.76128854101706 
12.80495504259828 
12.848755184311894 
12.892689730820361 
12.93675944913258 
12.980965108617273 
13.025307481016418 
13.069787340458742 
13.114405463473194 
13.159162629002557 
13.204059618416988 
13.24909721552771 
13.294276206600662 
13.33959738037024 
13.385061528053068 
13.430669443361808 
13.476421922518997 
13.522319764271003 
13.568363769901895 
13.614554743247485 
13.66089349070936 
13.707380821268924 
13.754017546501549 
13.80080448059075 
13.847742440342367 
13.894832245198867 
13.94207471725361 
13.98947068126522 
14.037020964672 
14.084726397606321 
14.132587812909208 
14.180606046144772 
14.228781935614885 
14.277116322373761 
14.325610050242666 
14.374263965824642 
14.42307891851929 
14.472055760537573 
14.521195346916755 
14.570498535535256 
14.619966187127675 
14.669599165299806 
14.719398336543707 
14.769364570252842 
14.819498738737241 
14.869801717238737 
14.920274383946259 
14.970917620011138 
15.021732309562505 
15.07271933972274 
15.123879600622908 
15.175213985418386 
15.226723390304356 
15.27840871453152 
15.330270860421788 
15.382310733384 
15.434529241929768 
15.486927297689325 
15.539505815427413 
15.592265713059316 
15.645207911666807 
15.698333335514297 
15.751642912064927 
15.80513757199678 
15.858818249219118 
15.912685880888695 
15.966741407426115 
16.020985772532242 
16.0754199232047 
16.130044809754352 
16.18486138582197 
16.239870608394803 
16.29507343782334 
16.350470837838053 
16.406063775566224 
16.46185322154884 
16.517840149757507 
16.574025537611494 
16.63041036599477 
16.686995619273116 
16.74378228531137 
16.80077135549059 
16.85796382472543 
16.915360691481474 
16.972962957792674 
17.030771629278853 
17.088787715163242 
17.147012228290116 
17.205446185142478 
17.264090605859792 
17.32294651425579 
17.382014937836367 
17.44129690781751 
17.500793459143267 
17.56050563050388 
17.620434464353863 
17.680581006930232 
17.74094630827075 
17.80153142223228 
17.86233740650917 
17.923365322651705 
17.984616236084676 
18.046091216125937 
18.107791336005107 
18.1697176728823 
18.231871307866918 
18.294253326036515 
18.356864816455783 
18.419706872195526 
18.48278059035175 
18.546087072064843 
18.609627422538743 
18.673402751060294 
18.737414171018578 
18.801662799924344 
18.866149759429554 
18.930876175346935 
18.995843177669634 
19.061051900590975 
19.126503482524207 
19.19219906612243 
19.258139798298522 
19.324326830245166 
19.390761317454917 
19.457444419740433 
19.52437730125468 
19.59156113051127 
19.658997080404852 
19.726686328231594 
19.794630055709746 
19.862829449000266 
19.9312856987275 
20.000000000000007 
0.0 
0.05504069767862951 
0.1095853027737288 
0.1636393432524068 
0.21720829736421354 
0.2702975941963368 
0.322912614223835 
0.3750586898549244 
0.4267411059714208 
0.47796510046433216 
0.5287358647647187 
0.5790585443698371 
0.6289382393646052 
0.6783800049385009 
0.7273888518978868 
0.7759697471738463 
0.824127614325568 
0.8718673340393339 