VARIABLES="x","y" 
ZONE NODES=47740, ELEMENTS=47153, DATAPACKING=BLOCK, ZONETYPE=FEQUADRILATERAL
0.0 
0.060275876465841094 
0.11995692211377573 
0.17905039709269577 
0.23756349007402378 
0.295503319126194 
0.35287693258057296 
0.4096913098888768 
0.4659533624722121 
0.5216699345618503 
0.5768478040318223 
0.6314936832234368 
0.6856142197618356 
0.7392159973646653 
0.792305536642993 
0.844889295894518 
0.8969736718892269 
0.9485650006475606 
0.9996695582111714 
1.0502935614064084 
1.1004431686005898 
1.1501244804511561 
1.199343540647817 
1.2481063366477567 
1.2964188004040036 
1.344286809087051 
1.391716185799805 
1.4387127002859628 
1.4852820696318965 
1.531429958962132 
1.5771619821285068 
1.6224837023930894 
1.6674006331049496 
1.711918238370842 
1.7560419337199247 
1.799777086762543 
1.8431290178431978 
1.886103000687764 
1.9287042630450273 
1.9709379873226474 
2.012809311217578 
2.0543233283410807 
2.095485088838341 
2.13629960000283 
2.1767718268854237 
2.21690669289841 
2.256709080414406 
2.296183831360303 
2.3353357478062793 
2.374169592549968 
2.4126900896958468 
2.4509019252299233 
2.488809747589781 
2.5264181682300566 
2.5637317621834192 
2.600755068617119 
2.637492591385176 
2.673948799576268 
2.710128128057392 
2.74603497801336 
2.7816737174822017 
2.8170486818865323 
2.8521641745609547 
2.8870244672755505 
2.921633800755544 
2.9559963851971798 
2.99011640077989 
3.023997998174809 
3.0576452990497005 
3.0910623965703525 
3.1242533558985115 
3.1572222146864 
3.1899729835678996 
3.2225096466464382 
3.2548361619796533 
3.2869564620608864 
3.318874454297565 
3.3505940214865433 
3.382119022286429 
3.4134532916869977 
3.444600641475709 
3.475564860701409 
3.506349716135266 
3.5369589527289937 
3.5673962940704227 
3.5976654428364694 
3.6277700812435674 
3.657713871495603 
3.6875004562294182 
3.717133458957939 
3.7466164845109677 
3.7759531194737113 
3.8051469326230833 
3.8342014753618456 
3.863120282150631 
3.891906870937909 
3.9205647435879403 
3.949097386306776 
3.977508270066351 
4.005800851026726 
4.033978570956528 
4.062044857651633 
4.090003125352158 
4.117856775157806 
4.145609195441592 
4.173263762262055 
4.200823839773933 
4.228292780637426 
4.255673926426037 
4.282970608033069 
4.3101861460768305 
4.337323851304583 
4.364387024995294 
4.391378959361228 
4.41830293794845 
4.445162236036259 
4.471960121035627 
4.498699852886676 
4.525384684455245 
4.552017861928601 
4.578602625210333 
4.605142208314486 
4.631639839758974 
4.658098742958325 
4.6845221366158105 
4.710913235114996 
4.737275248910767 
4.763611384919882 
4.789924846911085 
4.816218835894849 
4.8424965505127675 
4.868761187426674 
4.89501594170751 
4.9212640072240035 
4.947508577031198 
4.973752843758889 
5.0 
5.032551330131079 
5.065100218858578 
5.097647342775713 
5.130193378439019 
5.1627390023824065 
5.1952848911312275 
5.227831721216341 
5.260380169188171 
5.292930911630774 
5.3254846251759 
5.35804198651706 
5.390603672423594 
5.4231703597547325 
5.455742725473674 
5.488321446661653 
5.520907200532012 
5.553500664444284 
5.586102515918273 
5.618713432648131 
5.651334092516452 
5.683965173608358 
5.716607354225599 
5.74926131290065 
5.781927728410816 
5.814607279792341 
5.847300646354529 
5.8800085076938515 
5.912731543708092 
5.945470434610462 
5.978225860943751 
6.0109985035944735 
6.043789043807015 
6.076598163197799 
6.109426543769454 
6.142274867924991 
6.1751438184819865 
6.208034078686778 
6.240946332228667 
6.273881263254131 
6.306839556381041 
6.339821896712899 
6.372828969853073 
6.405861461919054 
6.438920059556713 
6.4720054499545805 
6.505118320858124 
6.538259360584052 
6.571429258034614 
6.604628702711926 
6.6378583847323025 
6.671118994840599 
6.704411224424576 
6.737735765529265 
6.771093310871356 
6.8044845538536 
6.837910188579218 
6.871370909866334 
6.904867413262414 
6.938400395058726 
6.971970552304815 
7.005578582822989 
7.039225185222833 
7.072911058915716 
7.106636904129347 
7.14040342192232 
7.1742113141986845 
7.208061283722548 
7.241954034132673 
7.275890269957108 
7.309870696627831 
7.343896020495418 
7.377966948843717 
7.412084189904563 
7.446248452872484 
7.480460447919459 
7.514720886209666 
7.549030479914279 
7.58338994222626 
7.617799987375191 
7.652261330642117 
7.68677468837442 
7.7213407780007 
7.755960318045697 
7.7906340281452255 
7.8253626290611304 
7.8601468426962695 
7.894987392109526 
7.9298850015308275 
7.964840396376213 
7.999854303262904 
8.034927450024407 
8.070060565725655 
8.105254380678147 
8.14050962645514 
8.175827035906853 
8.211207343175696 
8.246651283711538 
8.282159594286995 
8.317733013012733 
8.353372279352833 
8.389078134140135 
8.42485131959166 
8.460692579324032 
8.496602658368932 
8.532582303188581 
8.56863226169127 
8.6047532832469 
8.640946118702551 
8.677211520398105 
8.71355024218187 
8.74996303942627 
8.786450669043518 
8.823013889501379 
8.859653460838913 
8.8963701446823 
8.933164704260639 
8.970037904421844 
9.006990511648517 
9.044023294073906 
9.081137021497854 
9.118332465402801 
9.155610398969836 
9.192971597094756 
9.230416836404173 
9.267946895271663 
9.305562553833948 
9.343264594007106 
9.381053799502835 
9.418930955844726 
9.456896850384611 
9.494952272318919 
9.533098012705082 
9.571334864477983 
9.609663622466439 
9.648085083409708 
9.686600045974078 
9.72520931076944 
9.763913680365954 
9.802713959310719 
9.841610954144492 
9.880605473418477 
9.919698327711105 
9.958890329644902 
9.998182293903362 
10.037575037247915 
10.07706937853487 
10.116666138732453 
10.15636614093787 
10.196170210394417 
10.236079174508639 
10.276093862867516 
10.316215107255719 
10.356443741672907 
10.396780602351043 
10.437226527771784 
10.477782358683932 
10.518448938120873 
10.559227111418135 
10.60011772623093 
10.641121632551808 
10.682239682728298 
10.723472731480637 
10.76482163591953 
10.806287255563985 
10.847870452359157 
10.889572090694276 
10.931393037420618 
10.973334161869516 
11.015396335870449 
11.057580433769129 
11.099887332445707 
11.14231791133301 
11.18487305243477 
11.22755364034402 
11.270360562261441 
11.313294708013817 
11.35635697007254 
11.39954824357214 
11.442869426328912 
11.486321418859582 
11.529905124400006 
11.573621448923955 
11.617471301161952 
11.661455592620163 
11.705575237599335 
11.749831153213801 
11.794224259410562 
11.83875547898839 
11.883425737617015 
11.928235963856373 
11.973187089175909 
12.018280047973924 
12.063515777597022 
12.10889521835957 
12.154419313563263 
12.200089009516727 
12.245905255555178 
12.291869004060182 
12.337981210479418 
12.384242833346576 
12.430654834301247 
12.477218178108945 
12.52393383268113 
12.570802769095348 
12.61782596161542 
12.66500438771168 
12.712339028081292 
12.759830866668661 
12.807480890685852 
12.855290090633142 
12.903259460319585 
12.951389996883684 
12.999682700814116 
13.048138575970535 
13.096758629604413 
13.145543872380017 
13.19449531839539 
13.24361398520345 
13.292900893833101 
13.342357068810525 
13.39198353818041 
13.441781333527379 
13.491751489997368 
13.54189504631922 
13.592213044826217 
13.64270653147777 
13.693376555881157 
13.744224171313348 
13.795250434742902 
13.846456406851916 
13.897843152058098 
13.94941173853687 
14.00116323824361 
14.053098726935893 
14.105219284195867 
14.157525993452712 
14.210019942005133 
14.26270222104398 
14.315573925674927 
14.368636154941239 
14.421890011846605 
14.475336603378077 
14.528977040529073 
14.582812438322497 
14.636843915833877 
14.691072596214644 
14.745499606715503 
14.800126078709827 
14.854953147717193 
14.909981953426989 
14.965213639722107 
15.020649354702703 
15.076290250710075 
15.132137484350615 
15.18819221651987 
15.244455612426632 
15.30092884161719 
15.35761307799964 
15.414509499868272 
15.471619289928086 
15.528943635319342 
15.586483727642284 
15.644240762981868 
15.702215941932637 
15.760410469623684 
15.818825555743718 
15.877462414566173 
15.936322264974475 
15.995406330487372 
16.054715839284363 
16.114252024231256 
16.174016122905726 
16.234009377623142 
16.29423303546229 
16.354688348291376 
16.41537657279398 
16.47629897049525 
16.537456807788068 
16.598851355959397 
16.660483891216707 
16.722355694714487 
16.784468052580923 
16.84682225594458 
16.90941960096126 
16.97226138884095 
17.035348925874864 
17.09868352346261 
17.162266498139427 
17.22609917160358 
17.29018287074379 
17.354518927666888 
17.419108679725415 
17.483953469545508 
17.549054645054746 
17.614413559510197 
17.680031571526555 
17.74591004510435 
17.812050349658346 
17.87845386004598 
17.94512195659592 
18.012056025136808 
18.079257457026024 
18.146727649178644 
18.214468004096453 
18.282479929897093 
18.35076484034336 
18.419324154872562 
18.488159298626044 
18.55727170247883 
18.62666280306933 
18.69633404282921 
18.766286870013385 
18.836522738730146 
18.907043108971333 
18.977849446642743 
19.04894322359455 
19.120325917651932 
19.191999012645788 
19.263963998443575 
19.336222370980273 
19.40877563228949 
19.481625290534684 
19.554772860040508 
19.628219861324304 
19.70196782112766 
19.77601827244824 
19.850372754571552 
19.92503281310301 
20.000000000000007 
0.0 
0.060275876465841094 
0.11995692211377573 
0.17905039709269577 
0.23756349007402378 
0.295503319126194 
0.35287693258057296 
0.4096913098888768 
0.4659533624722121 
0.5216699345618503 
0.5768478040318223 
0.6314936832234368 
0.6856142197618356 
0.7392159973646653 
0.792305536642993 
0.844889295894518 
0.8969736718892269 
0.9485650006475606 
0.9996695582111714 
1.0502935614064084 
1.1004431686005898 
1.1501244804511561 
1.199343540647817 
1.2481063366477567 
1.2964188004040036 
1.344286809087051 
1.391716185799805 
1.4387127002859628 
1.4852820696318965 
1.531429958962132 
1.5771619821285068 
1.6224837023930894 
1.6674006331049496 
1.711918238370842 
1.7560419337199247 
1.799777086762543 
1.8431290178431978 
1.886103000687764 
1.9287042630450273 
1.9709379873226474 
2.012809311217578 
2.0543233283410807 
2.095485088838341 
2.13629960000283 
2.1767718268854237 
2.21690669289841 
2.256709080414406 
2.296183831360303 
2.3353357478062793 
2.374169592549968 
2.4126900896958468 
2.4509019252299233 
2.488809747589781 
2.5264181682300566 
2.5637317621834192 
2.600755068617119 
2.637492591385176 
2.673948799576268 
2.710128128057392 
2.74603497801336 
2.7816737174822017 
2.8170486818865323 
2.8521641745609547 
2.8870244672755505 
2.921633800755544 
2.9559963851971798 
2.99011640077989 
3.023997998174809 
3.0576452990497005 
3.0910623965703525 
3.1242533558985115 
3.1572222146864 
3.1899729835678996 
3.2225096466464382 
3.2548361619796533 
3.2869564620608864 
3.318874454297565 
3.3505940214865433 
3.382119022286429 
3.4134532916869977 
3.444600641475709 
3.475564860701409 
3.506349716135266 
3.5369589527289937 
3.5673962940704227 
3.5976654428364694 
3.6277700812435674 
3.657713871495603 
3.6875004562294182 
3.717133458957939 
3.7466164845109677 
3.7759531194737113 
3.8051469326230833 
3.8342014753618456 
3.863120282150631 
3.891906870937909 
3.9205647435879403 
3.949097386306776 
3.977508270066351 
4.005800851026726 
4.033978570956528 
4.062044857651633 
4.090003125352158 
4.117856775157806 
4.145609195441592 
4.173263762262055 
4.200823839773933 
4.228292780637426 
4.255673926426037 
4.282970608033069 
4.3101861460768305 
4.337323851304583 
4.364387024995294 
4.391378959361228 
4.41830293794845 
4.445162236036259 
4.471960121035627 
4.498699852886676 
4.525384684455245 
4.552017861928601 
4.578602625210333 
4.605142208314486 
4.631639839758974 
4.658098742958325 
4.6845221366158105 
4.710913235114996 
4.737275248910767 
4.763611384919882 
4.789924846911085 
4.816218835894849 
4.8424965505127675 
4.868761187426674 
4.89501594170751 
4.9212640072240035 
4.947508577031198 
4.973752843758889 
5.0 
5.032551330131079 
5.065100218858578 
5.097647342775713 
5.130193378439019 
5.1627390023824065 
5.1952848911312275 
5.227831721216341 
5.260380169188171 
5.292930911630774 
5.3254846251759 
5.35804198651706 
5.390603672423594 
5.4231703597547325 
5.455742725473674 
5.488321446661653 
5.520907200532012 
5.553500664444284 
5.586102515918273 
5.618713432648131 
5.651334092516452 
5.683965173608358 
5.716607354225599 
5.74926131290065 
5.781927728410816 
5.814607279792341 
5.847300646354529 
5.8800085076938515 
5.912731543708092 
5.945470434610462 
5.978225860943751 
6.0109985035944735 
6.043789043807015 
6.076598163197799 
6.109426543769454 
6.142274867924991 
6.1751438184819865 
6.208034078686778 
6.240946332228667 
6.273881263254131 
6.306839556381041 
6.339821896712899 
6.372828969853073 
6.405861461919054 
6.438920059556713 
6.4720054499545805 
6.505118320858124 
6.538259360584052 
6.571429258034614 
6.604628702711926 
6.6378583847323025 
6.671118994840599 
6.704411224424576 
6.737735765529265 
6.771093310871356 
6.8044845538536 
6.837910188579218 
6.871370909866334 
6.904867413262414 
6.938400395058726 
6.971970552304815 
7.005578582822989 
7.039225185222833 
7.072911058915716 
7.106636904129347 
7.14040342192232 
7.1742113141986845 
7.208061283722548 
7.241954034132673 
7.275890269957108 
7.309870696627831 
7.343896020495418 
7.377966948843717 
7.412084189904563 
7.446248452872484 
7.480460447919459 
7.514720886209666 
7.549030479914279 
7.58338994222626 
7.617799987375191 
7.652261330642117 
7.68677468837442 
7.7213407780007 
7.755960318045697 
7.7906340281452255 
7.8253626290611304 
7.8601468426962695 
7.894987392109526 
7.9298850015308275 
7.964840396376213 
7.999854303262904 
8.034927450024407 
8.070060565725655 
8.105254380678147 
8.14050962645514 
8.175827035906853 
8.211207343175696 
8.246651283711538 
8.282159594286995 
8.317733013012733 
8.353372279352833 
8.389078134140135 
8.42485131959166 
8.460692579324032 
8.496602658368932 
8.532582303188581 
8.56863226169127 
8.6047532832469 
8.640946118702551 
8.677211520398105 
8.71355024218187 
8.74996303942627 
8.786450669043518 
8.823013889501379 
8.859653460838913 
8.8963701446823 
8.933164704260639 
8.970037904421844 
9.006990511648517 
9.044023294073906 
9.081137021497854 
9.118332465402801 
9.155610398969836 
9.192971597094756 
9.230416836404173 
9.267946895271663 
9.305562553833948 
9.343264594007106 
9.381053799502835 
9.418930955844726 
9.456896850384611 
9.494952272318919 
9.533098012705082 
9.571334864477983 
9.609663622466439 
9.648085083409708 
9.686600045974078 
9.72520931076944 
9.763913680365954 
9.802713959310719 
9.841610954144492 
9.880605473418477 
9.919698327711105 
9.958890329644902 
9.998182293903362 
10.037575037247915 
10.07706937853487 
10.116666138732453 
10.15636614093787 
10.196170210394417 
10.236079174508639 
10.276093862867516 
10.316215107255719 
10.356443741672907 
10.396780602351043 
10.437226527771784 
10.477782358683932 
10.518448938120873 
10.559227111418135 
10.60011772623093 
10.641121632551808 
10.682239682728298 
10.723472731480637 
10.76482163591953 
10.806287255563985 
10.847870452359157 
10.889572090694276 
10.931393037420618 
10.973334161869516 
11.015396335870449 
11.057580433769129 
11.099887332445707 
11.14231791133301 
11.18487305243477 
11.22755364034402 
11.270360562261441 
11.313294708013817 
11.35635697007254 
11.39954824357214 
11.442869426328912 
11.486321418859582 
11.529905124400006 
11.573621448923955 
11.617471301161952 
11.661455592620163 
11.705575237599335 
11.749831153213801 
11.794224259410562 
11.83875547898839 
11.883425737617015 
11.928235963856373 
11.973187089175909 
12.018280047973924 
12.063515777597022 
12.10889521835957 
12.154419313563263 
12.200089009516727 
12.245905255555178 
12.291869004060182 
12.337981210479418 
12.384242833346576 
12.430654834301247 
12.477218178108945 
12.52393383268113 
12.570802769095348 
12.61782596161542 
12.66500438771168 
12.712339028081292 
12.759830866668661 
12.807480890685852 
12.855290090633142 
12.903259460319585 
12.951389996883684 
12.999682700814116 
13.048138575970535 
13.096758629604413 
13.145543872380017 
13.19449531839539 
13.24361398520345 
13.292900893833101 
13.342357068810525 
13.39198353818041 
13.441781333527379 
13.491751489997368 
13.54189504631922 
13.592213044826217 
13.64270653147777 
13.693376555881157 
13.744224171313348 
13.795250434742902 
13.846456406851916 
13.897843152058098 
13.94941173853687 
14.00116323824361 
14.053098726935893 
14.105219284195867 
14.157525993452712 
14.210019942005133 
14.26270222104398 
14.315573925674927 
14.368636154941239 
14.421890011846605 
14.475336603378077 
14.528977040529073 
14.582812438322497 
14.636843915833877 
14.691072596214644 
14.745499606715503 
14.800126078709827 
14.854953147717193 
14.909981953426989 
14.965213639722107 
15.020649354702703 
15.076290250710075 
15.132137484350615 
15.18819221651987 
15.244455612426632 
15.30092884161719 
15.35761307799964 
15.414509499868272 
15.471619289928086 
15.528943635319342 
15.586483727642284 
15.644240762981868 
15.702215941932637 
15.760410469623684 
15.818825555743718 
15.877462414566173 
15.936322264974475 
15.995406330487372 
16.054715839284363 
16.114252024231256 
16.174016122905726 
16.234009377623142 
16.29423303546229 
16.354688348291376 
16.41537657279398 
16.47629897049525 
16.537456807788068 
16.598851355959397 
16.660483891216707 
16.722355694714487 
16.784468052580923 
16.84682225594458 
16.90941960096126 
16.97226138884095 
17.035348925874864 
17.09868352346261 
17.162266498139427 
17.22609917160358 
17.29018287074379 
17.354518927666888 
17.419108679725415 
17.483953469545508 
17.549054645054746 
17.614413559510197 
17.680031571526555 
17.74591004510435 
17.812050349658346 
17.87845386004598 
17.94512195659592 
18.012056025136808 
18.079257457026024 
18.146727649178644 
18.214468004096453 
18.282479929897093 
18.35076484034336 
18.419324154872562 
18.488159298626044 
18.55727170247883 
18.62666280306933 
18.69633404282921 
18.766286870013385 
18.836522738730146 
18.907043108971333 
18.977849446642743 
19.04894322359455 
19.120325917651932 
19.191999012645788 
19.263963998443575 
19.336222370980273 
19.40877563228949 
19.481625290534684 
19.554772860040508 
19.628219861324304 
19.70196782112766 
19.77601827244824 
19.850372754571552 
19.92503281310301 
20.000000000000007 
0.0 
0.060275876465841094 
0.11995692211377573 
0.17905039709269577 
0.23756349007402378 
0.295503319126194 
0.35287693258057296 
0.4096913098888768 
0.4659533624722121 
0.5216699345618503 
0.5768478040318223 
0.6314936832234368 
0.6856142197618356 
0.7392159973646653 
0.792305536642993 
0.844889295894518 
0.8969736718892269 
0.9485650006475606 
0.9996695582111714 
1.0502935614064084 
1.1004431686005898 
1.1501244804511561 
1.199343540647817 
1.2481063366477567 
1.2964188004040036 
1.344286809087051 
1.391716185799805 
1.4387127002859628 
1.4852820696318965 
1.531429958962132 
1.5771619821285068 
1.6224837023930894 
1.6674006331049496 
1.711918238370842 
1.7560419337199247 
1.799777086762543 
1.8431290178431978 
1.886103000687764 
1.9287042630450273 
1.9709379873226474 
2.012809311217578 
2.0543233283410807 
2.095485088838341 
2.13629960000283 
2.1767718268854237 
2.21690669289841 
2.256709080414406 
2.296183831360303 
2.3353357478062793 
2.374169592549968 
2.4126900896958468 
2.4509019252299233 
2.488809747589781 
2.5264181682300566 
2.5637317621834192 
2.600755068617119 
2.637492591385176 
2.673948799576268 
2.710128128057392 
2.74603497801336 
2.7816737174822017 
2.8170486818865323 
2.8521641745609547 
2.8870244672755505 
2.921633800755544 
2.9559963851971798 
2.99011640077989 
3.023997998174809 
3.0576452990497005 
3.0910623965703525 
3.1242533558985115 
3.1572222146864 
3.1899729835678996 
3.2225096466464382 
3.2548361619796533 
3.2869564620608864 
3.318874454297565 
3.3505940214865433 
3.382119022286429 
3.4134532916869977 
3.444600641475709 
3.475564860701409 
3.506349716135266 
3.5369589527289937 
3.5673962940704227 
3.5976654428364694 
3.6277700812435674 
3.657713871495603 
3.6875004562294182 
3.717133458957939 
3.7466164845109677 
3.7759531194737113 
3.8051469326230833 
3.8342014753618456 
3.863120282150631 
3.891906870937909 
3.9205647435879403 
3.949097386306776 
3.977508270066351 
4.005800851026726 
4.033978570956528 
4.062044857651633 
4.090003125352158 
4.117856775157806 
4.145609195441592 
4.173263762262055 
4.200823839773933 
4.228292780637426 
4.255673926426037 
4.282970608033069 
4.3101861460768305 
4.337323851304583 
4.364387024995294 
4.391378959361228 
4.41830293794845 
4.445162236036259 
4.471960121035627 
4.498699852886676 
4.525384684455245 
4.552017861928601 
4.578602625210333 
4.605142208314486 
4.631639839758974 
4.658098742958325 
4.6845221366158105 
4.710913235114996 
4.737275248910767 
4.763611384919882 
4.789924846911085 
4.816218835894849 
4.8424965505127675 
4.868761187426674 
4.89501594170751 
4.9212640072240035 
4.947508577031198 
4.973752843758889 
5.0 
5.032551330131079 
5.065100218858578 
5.097647342775713 
5.130193378439019 
5.1627390023824065 
5.1952848911312275 
5.227831721216341 
5.260380169188171 
5.292930911630774 
5.3254846251759 
5.35804198651706 
5.390603672423594 
5.4231703597547325 
5.455742725473674 
5.488321446661653 
5.520907200532012 
5.553500664444284 
5.586102515918273 
5.618713432648131 
5.651334092516452 
5.683965173608358 
5.716607354225599 
5.74926131290065 
5.781927728410816 
5.814607279792341 
5.847300646354529 
5.8800085076938515 
5.912731543708092 
5.945470434610462 
5.978225860943751 
6.0109985035944735 
6.043789043807015 
6.076598163197799 
6.109426543769454 
6.142274867924991 
6.1751438184819865 
6.208034078686778 
6.240946332228667 
6.273881263254131 
6.306839556381041 
6.339821896712899 
6.372828969853073 
6.405861461919054 
6.438920059556713 
6.4720054499545805 
6.505118320858124 
6.538259360584052 
6.571429258034614 
6.604628702711926 
6.6378583847323025 
6.671118994840599 
6.704411224424576 
6.737735765529265 
6.771093310871356 
6.8044845538536 
6.837910188579218 
6.871370909866334 
6.904867413262414 
6.938400395058726 
6.971970552304815 
7.005578582822989 
7.039225185222833 
7.072911058915716 
7.106636904129347 
7.14040342192232 
7.1742113141986845 
7.208061283722548 
7.241954034132673 
7.275890269957108 
7.309870696627831 
7.343896020495418 
7.377966948843717 
7.412084189904563 
7.446248452872484 
7.480460447919459 
7.514720886209666 
7.549030479914279 
7.58338994222626 
7.617799987375191 
7.652261330642117 
7.68677468837442 
7.7213407780007 
7.755960318045697 
7.7906340281452255 
7.8253626290611304 
7.8601468426962695 
7.894987392109526 
7.9298850015308275 
7.964840396376213 
7.999854303262904 
8.034927450024407 
8.070060565725655 
8.105254380678147 
8.14050962645514 
8.175827035906853 
8.211207343175696 
8.246651283711538 
8.282159594286995 
8.317733013012733 
8.353372279352833 
8.389078134140135 
8.42485131959166 
8.460692579324032 
8.496602658368932 
8.532582303188581 
8.56863226169127 
8.6047532832469 
8.640946118702551 
8.677211520398105 
8.71355024218187 
8.74996303942627 
8.786450669043518 
8.823013889501379 
8.859653460838913 
8.8963701446823 
8.933164704260639 
8.970037904421844 
9.006990511648517 
9.044023294073906 
9.081137021497854 
9.118332465402801 
9.155610398969836 
9.192971597094756 
9.230416836404173 
9.267946895271663 
9.305562553833948 
9.343264594007106 
9.381053799502835 
9.418930955844726 
9.456896850384611 
9.494952272318919 
9.533098012705082 
9.571334864477983 
9.609663622466439 
9.648085083409708 
9.686600045974078 
9.72520931076944 
9.763913680365954 
9.802713959310719 
9.841610954144492 
9.880605473418477 
9.919698327711105 
9.958890329644902 
9.998182293903362 
10.037575037247915 
10.07706937853487 
10.116666138732453 
10.15636614093787 
10.196170210394417 
10.236079174508639 
10.276093862867516 
10.316215107255719 
10.356443741672907 
10.396780602351043 
10.437226527771784 
10.477782358683932 
10.518448938120873 
10.559227111418135 
10.60011772623093 
10.641121632551808 
10.682239682728298 
10.723472731480637 
10.76482163591953 
10.806287255563985 
10.847870452359157 
10.889572090694276 
10.931393037420618 
10.973334161869516 
11.015396335870449 
11.057580433769129 
11.099887332445707 
11.14231791133301 
11.18487305243477 
11.22755364034402 
11.270360562261441 
11.313294708013817 
11.35635697007254 
11.39954824357214 
11.442869426328912 
11.486321418859582 
11.529905124400006 
11.573621448923955 
11.617471301161952 
11.661455592620163 
11.705575237599335 
11.749831153213801 
11.794224259410562 
11.83875547898839 
11.883425737617015 
11.928235963856373 
11.973187089175909 
12.018280047973924 
12.063515777597022 
12.10889521835957 
12.154419313563263 
12.200089009516727 
12.245905255555178 
12.291869004060182 
12.337981210479418 
12.384242833346576 
12.430654834301247 
12.477218178108945 
12.52393383268113 
12.570802769095348 
12.61782596161542 
12.66500438771168 
12.712339028081292 
12.759830866668661 
12.807480890685852 
12.855290090633142 
12.903259460319585 
12.951389996883684 
12.999682700814116 
13.048138575970535 
13.096758629604413 
13.145543872380017 
13.19449531839539 
13.24361398520345 
13.292900893833101 
13.342357068810525 
13.39198353818041 
13.441781333527379 
13.491751489997368 
13.54189504631922 
13.592213044826217 
13.64270653147777 
13.693376555881157 
13.744224171313348 
13.795250434742902 
13.846456406851916 
13.897843152058098 
13.94941173853687 
14.00116323824361 
14.053098726935893 
14.105219284195867 
14.157525993452712 
14.210019942005133 
14.26270222104398 
14.315573925674927 
14.368636154941239 
14.421890011846605 
14.475336603378077 
14.528977040529073 
14.582812438322497 
14.636843915833877 
14.691072596214644 
14.745499606715503 
14.800126078709827 
14.854953147717193 
14.909981953426989 
14.965213639722107 
15.020649354702703 
15.076290250710075 
15.132137484350615 
15.18819221651987 
15.244455612426632 
15.30092884161719 
15.35761307799964 
15.414509499868272 
15.471619289928086 
15.528943635319342 
15.586483727642284 
15.644240762981868 
15.702215941932637 
15.760410469623684 
15.818825555743718 
15.877462414566173 
15.936322264974475 
15.995406330487372 
16.054715839284363 
16.114252024231256 
16.174016122905726 
16.234009377623142 
16.29423303546229 
16.354688348291376 
16.41537657279398 
16.47629897049525 
16.537456807788068 
16.598851355959397 
16.660483891216707 
16.722355694714487 
16.784468052580923 
16.84682225594458 
16.90941960096126 
16.97226138884095 
17.035348925874864 
17.09868352346261 
17.162266498139427 
17.22609917160358 
17.29018287074379 
17.354518927666888 
17.419108679725415 
17.483953469545508 
17.549054645054746 
17.614413559510197 
17.680031571526555 
17.74591004510435 
17.812050349658346 
17.87845386004598 
17.94512195659592 
18.012056025136808 
18.079257457026024 
18.146727649178644 
18.214468004096453 
18.282479929897093 
18.35076484034336 
18.419324154872562 
18.488159298626044 
18.55727170247883 
18.62666280306933 
18.69633404282921 
18.766286870013385 
18.836522738730146 
18.907043108971333 
18.977849446642743 
19.04894322359455 
19.120325917651932 
19.191999012645788 
19.263963998443575 
19.336222370980273 
19.40877563228949 
19.481625290534684 
19.554772860040508 
19.628219861324304 
19.70196782112766 
19.77601827244824 
19.850372754571552 
19.92503281310301 
20.000000000000007 
0.0 
0.060275876465841094 
0.11995692211377573 
0.17905039709269577 
0.23756349007402378 
0.295503319126194 
0.35287693258057296 
0.4096913098888768 
0.4659533624722121 
0.5216699345618503 
0.5768478040318223 
0.6314936832234368 
0.6856142197618356 
0.7392159973646653 
0.792305536642993 
0.844889295894518 
0.8969736718892269 
0.9485650006475606 
0.9996695582111714 
1.0502935614064084 
1.1004431686005898 
1.1501244804511561 
1.199343540647817 
1.2481063366477567 
1.2964188004040036 
1.344286809087051 
1.391716185799805 
1.4387127002859628 
1.4852820696318965 
1.531429958962132 
1.5771619821285068 
1.6224837023930894 
1.6674006331049496 
1.711918238370842 
1.7560419337199247 
1.799777086762543 
1.8431290178431978 
1.886103000687764 
1.9287042630450273 
1.9709379873226474 
2.012809311217578 
2.0543233283410807 
2.095485088838341 
2.13629960000283 
2.1767718268854237 
2.21690669289841 
2.256709080414406 
2.296183831360303 
2.3353357478062793 
2.374169592549968 
2.4126900896958468 
2.4509019252299233 
2.488809747589781 
2.5264181682300566 
2.5637317621834192 
2.600755068617119 
2.637492591385176 
2.673948799576268 
2.710128128057392 
2.74603497801336 
2.7816737174822017 
2.8170486818865323 
2.8521641745609547 
2.8870244672755505 
2.921633800755544 
2.9559963851971798 
2.99011640077989 
3.023997998174809 
3.0576452990497005 
3.0910623965703525 
3.1242533558985115 
3.1572222146864 
3.1899729835678996 
3.2225096466464382 
3.2548361619796533 
3.2869564620608864 
3.318874454297565 
3.3505940214865433 
3.382119022286429 
3.4134532916869977 
3.444600641475709 
3.475564860701409 
3.506349716135266 
3.5369589527289937 
3.5673962940704227 
3.5976654428364694 
3.6277700812435674 
3.657713871495603 
3.6875004562294182 
3.717133458957939 
3.7466164845109677 
3.7759531194737113 
3.8051469326230833 
3.8342014753618456 
3.863120282150631 
3.891906870937909 
3.9205647435879403 
3.949097386306776 
3.977508270066351 
4.005800851026726 
4.033978570956528 
4.062044857651633 
4.090003125352158 
4.117856775157806 
4.145609195441592 
4.173263762262055 
4.200823839773933 
4.228292780637426 
4.255673926426037 
4.282970608033069 
4.3101861460768305 
4.337323851304583 
4.364387024995294 
4.391378959361228 
4.41830293794845 
4.445162236036259 
4.471960121035627 
4.498699852886676 
4.525384684455245 
4.552017861928601 
4.578602625210333 
4.605142208314486 
4.631639839758974 
4.658098742958325 
4.6845221366158105 
4.710913235114996 
4.737275248910767 
4.763611384919882 
4.789924846911085 
4.816218835894849 
4.8424965505127675 
4.868761187426674 
4.89501594170751 
4.9212640072240035 
4.947508577031198 
4.973752843758889 
5.0 
5.032551330131079 
5.065100218858578 
5.097647342775713 
5.130193378439019 
5.1627390023824065 
5.1952848911312275 
5.227831721216341 
5.260380169188171 
5.292930911630774 
5.3254846251759 
5.35804198651706 