VARIABLES="x","y","u","v","psi","w","Hx","Hy","Mx","My","alpha","Theta","MxH" 
ZONE NODES=12640, ELEMENTS=12383, DATAPACKING=BLOCK, VARLOCATION=([1,2]=nodal,[3,4,5,6,7,8,9,10,11,12,13]=CELLCENTERED), ZONETYPE=FEQUADRILATERAL
0.0 
0.13249005598217511 0.2629735825385824 0.39150492704754747 0.5181376237887889 0.6429244162408327 0.7659172790490665 0.8871674396735827 1.0067253997257928 1.1246409560027422 1.240963221227842 1.3557406445067035 1.469021031506549 1.5808515643676362 1.6912788213549828 1.8003487962585605 1.9081069175500605 2.014598067304195 2.1198665998924238 2.223956360456887 2.326910703172234 2.4287725093029717 2.529584205063833 2.6293877792906195 2.7282248009288677 2.8261364363476305 2.923163466485583 3.0193463038365946 3.114725009281832 3.209339308775431 3.3032286098906463 3.396432018233412 3.488988353730122 3.5809361667964215 3.6723137543937474 3.7631591759803076 3.8535102693631282 3.9434046664577904 4.032879808962408 4.121972963952378 4.210721239402402 4.299161599642237 4.38733088075262 4.475265805907775 4.563003000670891 4.650579008248954 4.738030304713261 4.825393314191986 4.912704424041104 5.0 5.107837061175135 5.215671144934345 5.32350986618606 5.431360840166201 5.539231682975939 5.647130012119515 5.755063447042173 5.8630396096682205 5.971066124939257 6.079150621352634 6.18730073150015 6.295524092607042 6.403828347071302 6.512221143003363 6.620710134766176 6.729302983515748 6.838007357742141 6.946830933811001 7.055781396505642 7.164866439569713 7.274093766250512 7.383471089842967 7.493006134234319 7.602706634449566 7.71258033719768 7.8226350014186625 7.932878398831448 8.043318314482727 8.153962547296695 8.264818910625793 8.375895232802463 8.487199357691958 8.59873914524625 8.710522472059077 8.822557231922163 8.934851336382657 9.047412715301817 9.160249317414998 9.273369110892952 9.386780083904544 9.500490245180814 9.614507624580565 9.728840273657383 9.843496266228229 9.95848369894356 10.073810691859128 10.189485389009363 10.30551595898249 10.42191059549737 10.538677517982109 10.6558249721545 10.773361230604305 10.891294593377427 11.009633388562051 11.128385972876742 11.247560732260567 11.367166082465287 11.48721046964965 11.60770237097584 11.72865029520809 11.850062783313566 11.971948409065487 12.094315779648586 12.217173536266923 12.340530354754097 12.464394946185914 12.588776057495515 12.713682472091085 12.839123010476095 12.96510653087218 13.091641929844677 13.218738142930881 13.346404145271034 13.474648952242132 13.60348162009456 13.732911246591607 13.862946971651938 13.99359797799501 14.12487349178954 14.256782783305024 14.389335167566369 14.522540005011704 14.656406702153374 14.790944712242199 14.926163535935046 15.062072721965716 15.198681867819262 15.336000620409731 15.474038676761383 15.61280578469349 15.752311743508685 15.892566404684958 16.03357967257132 16.17536150508726 16.3179219144259 16.461270967761045 16.6054187879581 16.750375554288887 16.896151503150527 17.04275692878823 17.190202184022315 17.338497680979252 17.487653891826938 17.63768134951421 17.788590648514678 17.940392445574815 18.09309746046656 18.246716476744304 18.401260342506347 18.556739971161022 18.71316634219731 18.870550501960217 19.028903564430813 19.18823671201107 19.348561196313526 19.509888338955854 19.672229532360333 19.83559624055838 20.000000000000068 0.0 0.13249005598217511 0.2629735825385824 0.39150492704754747 0.5181376237887889 0.6429244162408327 0.7659172790490665 0.8871674396735827 1.0067253997257928 1.1246409560027422 1.240963221227842 1.3557406445067035 1.469021031506549 1.5808515643676362 1.6912788213549828 1.8003487962585605 1.9081069175500605 2.014598067304195 2.1198665998924238 2.223956360456887 2.326910703172234 2.4287725093029717 2.529584205063833 2.6293877792906195 2.7282248009288677 2.8261364363476305 2.923163466485583 3.0193463038365946 3.114725009281832 3.209339308775431 3.3032286098906463 3.396432018233412 3.488988353730122 3.5809361667964215 3.6723137543937474 3.7631591759803076 3.8535102693631282 3.9434046664577904 4.032879808962408 4.121972963952378 4.210721239402402 4.299161599642237 4.38733088075262 4.475265805907775 4.563003000670891 4.650579008248954 4.738030304713261 4.825393314191986 4.912704424041104 5.0 5.107837061175135 5.215671144934345 5.32350986618606 5.431360840166201 5.539231682975939 5.647130012119515 5.755063447042173 5.8630396096682205 5.971066124939257 6.079150621352634 6.18730073150015 6.295524092607042 6.403828347071302 6.512221143003363 6.620710134766176 6.729302983515748 6.838007357742141 6.946830933811001 7.055781396505642 7.164866439569713 7.274093766250512 7.383471089842967 7.493006134234319 7.602706634449566 7.71258033719768 7.8226350014186625 7.932878398831448 8.043318314482727 8.153962547296695 8.264818910625793 8.375895232802463 8.487199357691958 8.59873914524625 8.710522472059077 8.822557231922163 8.934851336382657 9.047412715301817 9.160249317414998 9.273369110892952 9.386780083904544 9.500490245180814 9.614507624580565 9.728840273657383 9.843496266228229 9.95848369894356 10.073810691859128 10.189485389009363 10.30551595898249 10.42191059549737 10.538677517982109 10.6558249721545 10.773361230604305 10.891294593377427 11.009633388562051 11.128385972876742 11.247560732260567 11.367166082465287 11.48721046964965 11.60770237097584 11.72865029520809 11.850062783313566 11.971948409065487 12.094315779648586 12.217173536266923 12.340530354754097 12.464394946185914 12.588776057495515 12.713682472091085 12.839123010476095 12.96510653087218 13.091641929844677 13.218738142930881 13.346404145271034 13.474648952242132 13.60348162009456 13.732911246591607 13.862946971651938 13.99359797799501 14.12487349178954 14.256782783305024 14.389335167566369 14.522540005011704 14.656406702153374 14.790944712242199 14.926163535935046 15.062072721965716 15.198681867819262 15.336000620409731 15.474038676761383 15.61280578469349 15.752311743508685 15.892566404684958 16.03357967257132 16.17536150508726 16.3179219144259 16.461270967761045 16.6054187879581 16.750375554288887 16.896151503150527 17.04275692878823 17.190202184022315 17.338497680979252 17.487653891826938 17.63768134951421 17.788590648514678 17.940392445574815 18.09309746046656 18.246716476744304 18.401260342506347 18.556739971161022 18.71316634219731 18.870550501960217 19.028903564430813 19.18823671201107 19.348561196313526 19.509888338955854 19.672229532360333 19.83559624055838 20.000000000000068 0.0 0.13249005598217511 0.2629735825385824 0.39150492704754747 0.5181376237887889 0.6429244162408327 0.7659172790490665 0.8871674396735827 1.0067253997257928 1.1246409560027422 1.240963221227842 1.3557406445067035 1.469021031506549 1.5808515643676362 1.6912788213549828 1.8003487962585605 1.9081069175500605 2.014598067304195 2.1198665998924238 2.223956360456887 2.326910703172234 2.4287725093029717 2.529584205063833 2.6293877792906195 2.7282248009288677 2.8261364363476305 2.923163466485583 3.0193463038365946 3.114725009281832 3.209339308775431 3.3032286098906463 3.396432018233412 3.488988353730122 3.5809361667964215 3.6723137543937474 3.7631591759803076 3.8535102693631282 3.9434046664577904 4.032879808962408 4.121972963952378 4.210721239402402 4.299161599642237 4.38733088075262 4.475265805907775 4.563003000670891 4.650579008248954 4.738030304713261 4.825393314191986 4.912704424041104 5.0 5.107837061175135 5.215671144934345 5.32350986618606 5.431360840166201 5.539231682975939 5.647130012119515 5.755063447042173 5.8630396096682205 5.971066124939257 6.079150621352634 6.18730073150015 6.295524092607042 6.403828347071302 6.512221143003363 6.620710134766176 6.729302983515748 6.838007357742141 6.946830933811001 7.055781396505642 7.164866439569713 7.274093766250512 7.383471089842967 7.493006134234319 7.602706634449566 7.71258033719768 7.8226350014186625 7.932878398831448 8.043318314482727 8.153962547296695 8.264818910625793 8.375895232802463 8.487199357691958 8.59873914524625 8.710522472059077 8.822557231922163 8.934851336382657 9.047412715301817 9.160249317414998 9.273369110892952 9.386780083904544 9.500490245180814 9.614507624580565 9.728840273657383 9.843496266228229 9.95848369894356 10.073810691859128 10.189485389009363 10.30551595898249 10.42191059549737 10.538677517982109 10.6558249721545 10.773361230604305 10.891294593377427 11.009633388562051 11.128385972876742 11.247560732260567 11.367166082465287 11.48721046964965 11.60770237097584 11.72865029520809 11.850062783313566 11.971948409065487 12.094315779648586 12.217173536266923 12.340530354754097 12.464394946185914 12.588776057495515 12.713682472091085 12.839123010476095 12.96510653087218 13.091641929844677 13.218738142930881 13.346404145271034 13.474648952242132 13.60348162009456 13.732911246591607 13.862946971651938 13.99359797799501 14.12487349178954 14.256782783305024 14.389335167566369 14.522540005011704 14.656406702153374 14.790944712242199 14.926163535935046 15.062072721965716 15.198681867819262 15.336000620409731 15.474038676761383 15.61280578469349 15.752311743508685 15.892566404684958 16.03357967257132 16.17536150508726 16.3179219144259 16.461270967761045 16.6054187879581 16.750375554288887 16.896151503150527 17.04275692878823 17.190202184022315 17.338497680979252 17.487653891826938 17.63768134951421 17.788590648514678 17.940392445574815 18.09309746046656 18.246716476744304 18.401260342506347 18.556739971161022 18.71316634219731 18.870550501960217 19.028903564430813 19.18823671201107 19.348561196313526 19.509888338955854 19.672229532360333 19.83559624055838 20.000000000000068 0.0 0.13249005598217511 0.2629735825385824 0.39150492704754747 0.5181376237887889 0.6429244162408327 0.7659172790490665 0.8871674396735827 1.0067253997257928 1.1246409560027422 1.240963221227842 1.3557406445067035 1.469021031506549 1.5808515643676362 1.6912788213549828 1.8003487962585605 1.9081069175500605 2.014598067304195 2.1198665998924238 2.223956360456887 2.326910703172234 2.4287725093029717 2.529584205063833 2.6293877792906195 2.7282248009288677 2.8261364363476305 2.923163466485583 3.0193463038365946 3.114725009281832 3.209339308775431 3.3032286098906463 3.396432018233412 3.488988353730122 3.5809361667964215 3.6723137543937474 3.7631591759803076 3.8535102693631282 3.9434046664577904 4.032879808962408 4.121972963952378 4.210721239402402 4.299161599642237 4.38733088075262 4.475265805907775 4.563003000670891 4.650579008248954 4.738030304713261 4.825393314191986 4.912704424041104 5.0 5.107837061175135 5.215671144934345 5.32350986618606 5.431360840166201 5.539231682975939 5.647130012119515 5.755063447042173 5.8630396096682205 5.971066124939257 6.079150621352634 6.18730073150015 6.295524092607042 6.403828347071302 6.512221143003363 6.620710134766176 6.729302983515748 6.838007357742141 6.946830933811001 7.055781396505642 7.164866439569713 7.274093766250512 7.383471089842967 7.493006134234319 7.602706634449566 7.71258033719768 7.8226350014186625 7.932878398831448 8.043318314482727 8.153962547296695 8.264818910625793 8.375895232802463 8.487199357691958 8.59873914524625 8.710522472059077 8.822557231922163 8.934851336382657 9.047412715301817 9.160249317414998 9.273369110892952 9.386780083904544 9.500490245180814 9.614507624580565 9.728840273657383 9.843496266228229 9.95848369894356 10.073810691859128 10.189485389009363 10.30551595898249 10.42191059549737 10.538677517982109 10.6558249721545 10.773361230604305 10.891294593377427 11.009633388562051 11.128385972876742 11.247560732260567 11.367166082465287 11.48721046964965 11.60770237097584 11.72865029520809 11.850062783313566 11.971948409065487 12.094315779648586 12.217173536266923 12.340530354754097 12.464394946185914 12.588776057495515 12.713682472091085 12.839123010476095 12.96510653087218 13.091641929844677 13.218738142930881 13.346404145271034 13.474648952242132 13.60348162009456 13.732911246591607 13.862946971651938 13.99359797799501 14.12487349178954 14.256782783305024 14.389335167566369 14.522540005011704 14.656406702153374 14.790944712242199 14.926163535935046 15.062072721965716 15.198681867819262 15.336000620409731 15.474038676761383 15.61280578469349 15.752311743508685 15.892566404684958 16.03357967257132 16.17536150508726 16.3179219144259 16.461270967761045 16.6054187879581 16.750375554288887 16.896151503150527 17.04275692878823 17.190202184022315 17.338497680979252 17.487653891826938 17.63768134951421 17.788590648514678 17.940392445574815 18.09309746046656 18.246716476744304 18.401260342506347 18.556739971161022 18.71316634219731 18.870550501960217 19.028903564430813 19.18823671201107 19.348561196313526 19.509888338955854 19.672229532360333 19.83559624055838 20.000000000000068 0.0 0.13249005598217511 0.2629735825385824 0.39150492704754747 0.5181376237887889 0.6429244162408327 0.7659172790490665 0.8871674396735827 1.0067253997257928 1.1246409560027422 1.240963221227842 1.3557406445067035 1.469021031506549 1.5808515643676362 1.6912788213549828 1.8003487962585605 1.9081069175500605 2.014598067304195 2.1198665998924238 2.223956360456887 2.326910703172234 2.4287725093029717 2.529584205063833 2.6293877792906195 2.7282248009288677 2.8261364363476305 2.923163466485583 3.0193463038365946 3.114725009281832 3.209339308775431 3.3032286098906463 3.396432018233412 3.488988353730122 3.5809361667964215 3.6723137543937474 3.7631591759803076 3.8535102693631282 3.9434046664577904 4.032879808962408 4.121972963952378 4.210721239402402 4.299161599642237 4.38733088075262 4.475265805907775 4.563003000670891 4.650579008248954 4.738030304713261 4.825393314191986 4.912704424041104 5.0 5.107837061175135 5.215671144934345 5.32350986618606 5.431360840166201 5.539231682975939 5.647130012119515 5.755063447042173 5.8630396096682205 5.971066124939257 6.079150621352634 6.18730073150015 6.295524092607042 6.403828347071302 6.512221143003363 6.620710134766176 6.729302983515748 6.838007357742141 6.946830933811001 7.055781396505642 7.164866439569713 7.274093766250512 7.383471089842967 7.493006134234319 7.602706634449566 7.71258033719768 7.8226350014186625 7.932878398831448 8.043318314482727 8.153962547296695 8.264818910625793 8.375895232802463 8.487199357691958 8.59873914524625 8.710522472059077 8.822557231922163 8.934851336382657 9.047412715301817 9.160249317414998 9.273369110892952 9.386780083904544 9.500490245180814 9.614507624580565 9.728840273657383 9.843496266228229 9.95848369894356 10.073810691859128 10.189485389009363 10.30551595898249 10.42191059549737 10.538677517982109 10.6558249721545 10.773361230604305 10.891294593377427 11.009633388562051 11.128385972876742 11.247560732260567 11.367166082465287 11.48721046964965 11.60770237097584 11.72865029520809 11.850062783313566 11.971948409065487 12.094315779648586 12.217173536266923 12.340530354754097 12.464394946185914 12.588776057495515 12.713682472091085 12.839123010476095 12.96510653087218 13.091641929844677 13.218738142930881 13.346404145271034 13.474648952242132 13.60348162009456 13.732911246591607 13.862946971651938 13.99359797799501 14.12487349178954 14.256782783305024 14.389335167566369 14.522540005011704 14.656406702153374 14.790944712242199 14.926163535935046 15.062072721965716 15.198681867819262 15.336000620409731 15.474038676761383 15.61280578469349 15.752311743508685 15.892566404684958 16.03357967257132 16.17536150508726 16.3179219144259 16.461270967761045 16.6054187879581 16.750375554288887 16.896151503150527 17.04275692878823 17.190202184022315 17.338497680979252 17.487653891826938 17.63768134951421 17.788590648514678 17.940392445574815 18.09309746046656 18.246716476744304 18.401260342506347 18.556739971161022 18.71316634219731 18.870550501960217 19.028903564430813 19.18823671201107 19.348561196313526 19.509888338955854 19.672229532360333 19.83559624055838 20.000000000000068 0.0 0.13249005598217511 0.2629735825385824 0.39150492704754747 0.5181376237887889 0.6429244162408327 0.7659172790490665 0.8871674396735827 1.0067253997257928 1.1246409560027422 1.240963221227842 1.3557406445067035 1.469021031506549 1.5808515643676362 1.6912788213549828 1.8003487962585605 1.9081069175500605 2.014598067304195 2.1198665998924238 2.223956360456887 2.326910703172234 2.4287725093029717 2.529584205063833 2.6293877792906195 2.7282248009288677 2.8261364363476305 2.923163466485583 3.0193463038365946 3.114725009281832 3.209339308775431 3.3032286098906463 3.396432018233412 3.488988353730122 3.5809361667964215 3.6723137543937474 3.7631591759803076 3.8535102693631282 3.9434046664577904 4.032879808962408 4.121972963952378 4.210721239402402 4.299161599642237 4.38733088075262 4.475265805907775 4.563003000670891 4.650579008248954 4.738030304713261 4.825393314191986 4.912704424041104 5.0 5.107837061175135 5.215671144934345 5.32350986618606 5.431360840166201 5.539231682975939 5.647130012119515 5.755063447042173 5.8630396096682205 5.971066124939257 6.079150621352634 6.18730073150015 6.295524092607042 6.403828347071302 6.512221143003363 6.620710134766176 6.729302983515748 6.838007357742141 6.946830933811001 7.055781396505642 7.164866439569713 7.274093766250512 7.383471089842967 7.493006134234319 7.602706634449566 7.71258033719768 7.8226350014186625 7.932878398831448 8.043318314482727 8.153962547296695 8.264818910625793 8.375895232802463 8.487199357691958 8.59873914524625 8.710522472059077 8.822557231922163 8.934851336382657 9.047412715301817 9.160249317414998 9.273369110892952 9.386780083904544 9.500490245180814 9.614507624580565 9.728840273657383 9.843496266228229 9.95848369894356 10.073810691859128 10.189485389009363 10.30551595898249 10.42191059549737 10.538677517982109 10.6558249721545 10.773361230604305 10.891294593377427 11.009633388562051 11.128385972876742 11.247560732260567 11.367166082465287 11.48721046964965 11.60770237097584 11.72865029520809 11.850062783313566 11.971948409065487 12.094315779648586 12.217173536266923 12.340530354754097 12.464394946185914 12.588776057495515 12.713682472091085 12.839123010476095 12.96510653087218 13.091641929844677 13.218738142930881 13.346404145271034 13.474648952242132 13.60348162009456 13.732911246591607 13.862946971651938 13.99359797799501 14.12487349178954 14.256782783305024 14.389335167566369 14.522540005011704 14.656406702153374 14.790944712242199 14.926163535935046 15.062072721965716 15.198681867819262 15.336000620409731 15.474038676761383 15.61280578469349 15.752311743508685 15.892566404684958 16.03357967257132 16.17536150508726 16.3179219144259 16.461270967761045 16.6054187879581 16.750375554288887 16.896151503150527 17.04275692878823 17.190202184022315 17.338497680979252 17.487653891826938 17.63768134951421 17.788590648514678 17.940392445574815 