VARIABLES="x","y" 
ZONE NODES=50880, ELEMENTS=50363, DATAPACKING=BLOCK, ZONETYPE=FEQUADRILATERAL
0.0 
0.19622178109151456 
0.38468202770996385 
0.5656884405165004 
0.7395365502338782 
0.9065102001619953 
1.0668820096112914 
1.2209138190106263 
1.3688571174163995 
1.5109534531208886 
1.6474348280302085 
1.778524076455835 
1.9044352289380786 
2.0253738616955803 
2.1415374322713907 
2.253115601923563 
2.360290545286741 
2.4632372478102376 
2.5621237914582795 
2.6571116291388646 
2.748355848309328 
2.836005424188946 
2.9202034629920592 
3.0010874355788264 
3.078789401905061 
3.153436226637665 
3.225149786287657 
3.294047168198991 
3.3602408617180757 
3.423838941856088 
3.4849452457439765 
3.543659542168232 
3.6000776944642414 
3.6542918170331804 
3.706390425737983 
3.756458582423952 
3.804578033799964 
3.850827344907019 
3.8952820273920614 
3.9380146627964896 
3.9790950210606635 
4.018590174437883 
4.056564607003835 
4.093080319940288 
4.128196932764967 
4.161971780672838 
4.19446000814778 
4.2257146589974575 
4.255786762958396 
4.284725419012672 
4.312577875552243 
4.339389607521806 
4.36520439066612 
4.3900643730030495 
4.41401014363899 
4.43708079903905 
4.459314006860189 
4.480746067451518 
4.501411973122198 
4.521345465273675 
4.540579089489564 
4.559144248673096 
4.57707125431891 
4.594389376002892 
4.611126889170861 
4.627311121304128 
4.642968496537317 
4.658124578801271 
4.672804113561502 
4.687031068220325 
4.700828671248641 
4.714219450111263 
4.7272252680476985 
4.739867359768446 
4.752166366125098 
4.764142367810823 
4.775814918146298 
4.787203075004576 
4.798325431927039 
4.809200148481237 
4.819844979910163 
4.830277306121396 
4.840514160063425 
4.850572255535486 
4.860468014476328 
4.870217593776454 
4.8798369116576135 
4.889341673662619 
4.898747398297923 
4.908069442370814 
4.917323026062609 
4.926523257778772 
4.9356851588165425 
4.944823687890327 
4.953953765554933 
4.963090298566471 
4.972248204220761 
4.981442434708913 
4.990688001529909 
5.0 
5.011598909523299 
5.023159051007915 
5.034683662607613 
5.046175972523751 
5.057639199909546 
5.069076555771797 
5.080491243870338 
5.09188646161545 
5.103265400963504 
5.114631249311067 
5.1259871903877405 
5.13733640514796 
5.148682072662032 
5.1600273710066284 
5.171375478155013 
5.18272957286723 
5.194092835580529 
5.205468449300235 
5.216859600491365 
5.22826947997119 
5.239701283803032 
5.251158214191526 
5.262643480379595 
5.274160299547413 
5.2857118977135675 
5.297301510638727 
5.308932384732009 
5.32060777796035 
5.332330960761106 
5.3441052169581456 
5.355933844681693 
5.367820157292183 
5.379767484308373 
5.391779172339995 
5.403858586025178 
5.416009108972934 
5.428234144710951 
5.440537117638971 
5.45292147398801 
5.465390682785689 
5.477948236827964 
5.4905976536575025 
5.503342476548994 
5.5161862755016715 
5.529132648239317 
5.542185221218032 
5.5553476506420605 
5.568623623487937 
5.582016858537262 
5.5955311074183856 
5.609170155657285 
5.622937823737945 
5.636837968172528 
5.650874482581637 
5.6650512987849675 
5.679372387902668 
5.693841761467705 
5.708463472549545 
5.723241616889479 
5.7381803340478905 
5.75328380856381 
5.768556271127054 
5.784001999763306 
5.799625321032443 
5.815430611240472 
5.831422297665384 
5.847604859797305 
5.863982830593254 
5.8805607977468926 
5.897343404973597 
5.914335353311227 
5.93154140243695 
5.948966372000494 
5.966615142974198 
5.984492659020235 
6.002603927875404 
6.020954022753861 
6.0395480837681985 
6.058391319369263 
6.077489007805109 
6.096846498599514 
6.116469214050446 
6.136362650748931 
6.1565323811187165 
6.176984054977188 
6.197723401117962 
6.21875622891559 
6.240088429952858 
6.261725979671086 
6.283674939043937 
6.305941456275184 
6.328531768520889 
6.351452203636538 
6.374709181949543 
6.398309218057669 
6.4222589226538656 
6.446565004378006 
6.4712342716960745 
6.496273634807307 
6.521690107579832 
6.547490809515357 
6.573682967743429 
6.600273919045862 
6.627271111911863 
6.654682108624459 
6.682514587378793 
6.710776344432898 
6.739475296291524 
6.768619481923675 
6.798217065014417 
6.828276336251651 
6.858805715648444 
6.889813754901586 
6.921309139787046 
6.953300692592963 
6.985797374590906 
7.018808288546037 
7.05234268126692 
7.086409946195688 
7.121019626039266 
7.156181415442418 
7.191905163703348 
7.22820087753262 
7.265078723856183 
7.302549032663254 
7.340622299899906 
7.379309190409106 
7.418620540918099 
7.458567363073919 
7.499160846527898 
7.5404123620700485 
7.5823334648141625 
7.624935897434577 
7.668231593455445 
7.712232680593477 
7.756951484155089 
7.802400530488885 
7.848592550494455 
7.895540483188487 
7.943257479329139 
7.991756905099775 
8.04105234585299 
8.091157609916072 
8.142086732458894 
8.193853979425361 
8.24647385152949 
8.299961088317264 
8.35433067229538 
8.409597833128053 
8.465778051903051 
8.522887065468165 
8.580940870839306 
8.639955729681503 
8.699948172864005 
8.760935005090804 
8.82293330960787 
8.885960452988392 
8.95003408999741 
9.01517216853713 
9.081392934674405 
9.148714937751686 
9.21715703558296 
9.286738399736073 
9.357478520902959 
9.42939721435923 
9.502514625514731 
9.576851235556525 
9.652427867185963 
9.729265690451406 
9.807386228678244 
9.88681136449788 
9.967563345977336 
10.049664792851264 
10.133138702858032 
10.218008458181696 
10.304297832001698 
10.392030995152023 
10.481232522891808 
10.571927401789196 
10.664141036720409 
10.757899257986022 
10.853228328546361 
10.950154951378133 
11.048706276954292 
11.148909910849248 
11.250793921471587 
11.354386847926385 
11.459717708009435 
11.5668160063355 
11.675711742602983 
11.78643541999724 
11.899018053734935 
12.013491179751846 
12.12988686353648 
12.248237709112095 
12.368576868169498 
12.49093804935331 
12.615355527704207 
12.741864154259819 
12.870499365817007 
13.001297194858187 
13.134294279644493 
13.269527874478696 
13.40703586014062 
13.546856754498071 
13.689029723296231 
13.833594591128485 
13.980591852591873 
14.130062683630166 
14.282048953067804 
14.436593234337941 
14.593738817407816 
14.753529720904913 
14.91601070444713 
15.081227281180599 
15.249225730528531 
15.420053111154694 
15.593757274145224 
15.770386876412324 
15.94999139432378 
16.132621137561948 
16.31832726321614 
16.507161790112526 
16.69917761338521 
16.894428519292955 
17.09296920028542 
17.294855270323257 
17.50014328045637 
17.708890734664593 
17.921156105965387 
18.13699885279292 
18.35647943565317 
18.579659334059755 
18.806601063755178 
19.037368194222346 
19.27202536649126 
19.510638311245827 
19.75327386723597 
19.999999999999996 
0.0 
0.19622178109151456 
0.38468202770996385 
0.5656884405165004 
0.7395365502338782 
0.9065102001619953 
1.0668820096112914 
1.2209138190106263 
1.3688571174163995 
1.5109534531208886 
1.6474348280302085 
1.778524076455835 
1.9044352289380786 
2.0253738616955803 
2.1415374322713907 
2.253115601923563 
2.360290545286741 
2.4632372478102376 
2.5621237914582795 
2.6571116291388646 
2.748355848309328 
2.836005424188946 
2.9202034629920592 
3.0010874355788264 
3.078789401905061 
3.153436226637665 
3.225149786287657 
3.294047168198991 
3.3602408617180757 
3.423838941856088 
3.4849452457439765 
3.543659542168232 
3.6000776944642414 
3.6542918170331804 
3.706390425737983 
3.756458582423952 
3.804578033799964 
3.850827344907019 
3.8952820273920614 
3.9380146627964896 
3.9790950210606635 
4.018590174437883 
4.056564607003835 
4.093080319940288 
4.128196932764967 
4.161971780672838 
4.19446000814778 
4.2257146589974575 
4.255786762958396 
4.284725419012672 
4.312577875552243 
4.339389607521806 
4.36520439066612 
4.3900643730030495 
4.41401014363899 
4.43708079903905 
4.459314006860189 
4.480746067451518 
4.501411973122198 
4.521345465273675 
4.540579089489564 
4.559144248673096 
4.57707125431891 
4.594389376002892 
4.611126889170861 
4.627311121304128 
4.642968496537317 
4.658124578801271 
4.672804113561502 
4.687031068220325 
4.700828671248641 
4.714219450111263 
4.7272252680476985 
4.739867359768446 
4.752166366125098 
4.764142367810823 
4.775814918146298 
4.787203075004576 
4.798325431927039 
4.809200148481237 
4.819844979910163 
4.830277306121396 
4.840514160063425 
4.850572255535486 
4.860468014476328 
4.870217593776454 
4.8798369116576135 
4.889341673662619 
4.898747398297923 
4.908069442370814 
4.917323026062609 
4.926523257778772 
4.9356851588165425 
4.944823687890327 
4.953953765554933 
4.963090298566471 
4.972248204220761 
4.981442434708913 
4.990688001529909 
5.0 
5.011598909523299 
5.023159051007915 
5.034683662607613 
5.046175972523751 
5.057639199909546 
5.069076555771797 
5.080491243870338 
5.09188646161545 
5.103265400963504 
5.114631249311067 
5.1259871903877405 
5.13733640514796 
5.148682072662032 
5.1600273710066284 
5.171375478155013 
5.18272957286723 
5.194092835580529 
5.205468449300235 
5.216859600491365 
5.22826947997119 
5.239701283803032 
5.251158214191526 
5.262643480379595 
5.274160299547413 
5.2857118977135675 
5.297301510638727 
5.308932384732009 
5.32060777796035 
5.332330960761106 
5.3441052169581456 
5.355933844681693 
5.367820157292183 
5.379767484308373 
5.391779172339995 
5.403858586025178 
5.416009108972934 
5.428234144710951 
5.440537117638971 
5.45292147398801 
5.465390682785689 
5.477948236827964 
5.4905976536575025 
5.503342476548994 
5.5161862755016715 
5.529132648239317 
5.542185221218032 
5.5553476506420605 
5.568623623487937 
5.582016858537262 
5.5955311074183856 
5.609170155657285 
5.622937823737945 
5.636837968172528 
5.650874482581637 
5.6650512987849675 
5.679372387902668 
5.693841761467705 
5.708463472549545 
5.723241616889479 
5.7381803340478905 
5.75328380856381 
5.768556271127054 
5.784001999763306 
5.799625321032443 
5.815430611240472 
5.831422297665384 
5.847604859797305 
5.863982830593254 
5.8805607977468926 
5.897343404973597 
5.914335353311227 
5.93154140243695 
5.948966372000494 
5.966615142974198 
5.984492659020235 
6.002603927875404 
6.020954022753861 
6.0395480837681985 
6.058391319369263 
6.077489007805109 
6.096846498599514 
6.116469214050446 
6.136362650748931 
6.1565323811187165 
6.176984054977188 
6.197723401117962 
6.21875622891559 
6.240088429952858 
6.261725979671086 
6.283674939043937 
6.305941456275184 
6.328531768520889 
6.351452203636538 
6.374709181949543 
6.398309218057669 
6.4222589226538656 
6.446565004378006 
6.4712342716960745 
6.496273634807307 
6.521690107579832 
6.547490809515357 
6.573682967743429 
6.600273919045862 
6.627271111911863 
6.654682108624459 
6.682514587378793 
6.710776344432898 
6.739475296291524 
6.768619481923675 
6.798217065014417 
6.828276336251651 
6.858805715648444 
6.889813754901586 
6.921309139787046 
6.953300692592963 
6.985797374590906 
7.018808288546037 
7.05234268126692 
7.086409946195688 
7.121019626039266 
7.156181415442418 
7.191905163703348 
7.22820087753262 
7.265078723856183 
7.302549032663254 
7.340622299899906 
7.379309190409106 
7.418620540918099 
7.458567363073919 
7.499160846527898 
7.5404123620700485 
7.5823334648141625 
7.624935897434577 
7.668231593455445 
7.712232680593477 
7.756951484155089 
7.802400530488885 
7.848592550494455 
7.895540483188487 
7.943257479329139 
7.991756905099775 
8.04105234585299 
8.091157609916072 
8.142086732458894 
8.193853979425361 
8.24647385152949 
8.299961088317264 
8.35433067229538 
8.409597833128053 
8.465778051903051 
8.522887065468165 
8.580940870839306 
8.639955729681503 
8.699948172864005 
8.760935005090804 
8.82293330960787 
8.885960452988392 
8.95003408999741 
9.01517216853713 
9.081392934674405 
9.148714937751686 
9.21715703558296 
9.286738399736073 
9.357478520902959 
9.42939721435923 
9.502514625514731 
9.576851235556525 
9.652427867185963 
9.729265690451406 
9.807386228678244 
9.88681136449788 
9.967563345977336 
10.049664792851264 
10.133138702858032 
10.218008458181696 
10.304297832001698 
10.392030995152023 
10.481232522891808 
10.571927401789196 
10.664141036720409 
10.757899257986022 
10.853228328546361 
10.950154951378133 
11.048706276954292 
11.148909910849248 
11.250793921471587 
11.354386847926385 
11.459717708009435 
11.5668160063355 
11.675711742602983 
11.78643541999724 
11.899018053734935 
12.013491179751846 
12.12988686353648 
12.248237709112095 
12.368576868169498 
12.49093804935331 
12.615355527704207 
12.741864154259819 
12.870499365817007 
13.001297194858187 
13.134294279644493 
13.269527874478696 
13.40703586014062 
13.546856754498071 
13.689029723296231 
13.833594591128485 
13.980591852591873 
14.130062683630166 
14.282048953067804 
14.436593234337941 
14.593738817407816 
14.753529720904913 
14.91601070444713 
15.081227281180599 
15.249225730528531 
15.420053111154694 
15.593757274145224 
15.770386876412324 
15.94999139432378 
16.132621137561948 
16.31832726321614 
16.507161790112526 
16.69917761338521 
16.894428519292955 
17.09296920028542 
17.294855270323257 
17.50014328045637 
17.708890734664593 
17.921156105965387 
18.13699885279292 
18.35647943565317 
18.579659334059755 
18.806601063755178 
19.037368194222346 
19.27202536649126 
19.510638311245827 
19.75327386723597 
19.999999999999996 
0.0 
0.19622178109151456 
0.38468202770996385 
0.5656884405165004 
0.7395365502338782 
0.9065102001619953 
1.0668820096112914 
1.2209138190106263 
1.3688571174163995 
1.5109534531208886 
1.6474348280302085 
1.778524076455835 
1.9044352289380786 
2.0253738616955803 
2.1415374322713907 
2.253115601923563 
2.360290545286741 
2.4632372478102376 
2.5621237914582795 
2.6571116291388646 
2.748355848309328 
2.836005424188946 
2.9202034629920592 
3.0010874355788264 
3.078789401905061 
3.153436226637665 
3.225149786287657 
3.294047168198991 
3.3602408617180757 
3.423838941856088 
3.4849452457439765 
3.543659542168232 
3.6000776944642414 
3.6542918170331804 
3.706390425737983 
3.756458582423952 
3.804578033799964 
3.850827344907019 
3.8952820273920614 
3.9380146627964896 
3.9790950210606635 
4.018590174437883 
4.056564607003835 
4.093080319940288 
4.128196932764967 
4.161971780672838 
4.19446000814778 
4.2257146589974575 
4.255786762958396 
4.284725419012672 
4.312577875552243 
4.339389607521806 
4.36520439066612 
4.3900643730030495 
4.41401014363899 
4.43708079903905 
4.459314006860189 
4.480746067451518 
4.501411973122198 
4.521345465273675 
4.540579089489564 
4.559144248673096 
4.57707125431891 
4.594389376002892 
4.611126889170861 
4.627311121304128 
4.642968496537317 
4.658124578801271 
4.672804113561502 
4.687031068220325 
4.700828671248641 
4.714219450111263 
4.7272252680476985 
4.739867359768446 
4.752166366125098 
4.764142367810823 
4.775814918146298 
4.787203075004576 
4.798325431927039 
4.809200148481237 
4.819844979910163 
4.830277306121396 
4.840514160063425 
4.850572255535486 
4.860468014476328 
4.870217593776454 
4.8798369116576135 
4.889341673662619 
4.898747398297923 
4.908069442370814 
4.917323026062609 
4.926523257778772 
4.9356851588165425 
4.944823687890327 
4.953953765554933 
4.963090298566471 
4.972248204220761 
4.981442434708913 
4.990688001529909 
5.0 
5.011598909523299 
5.023159051007915 
5.034683662607613 
5.046175972523751 
5.057639199909546 
5.069076555771797 
5.080491243870338 
5.09188646161545 
5.103265400963504 
5.114631249311067 
5.1259871903877405 
5.13733640514796 
5.148682072662032 
5.1600273710066284 
5.171375478155013 
5.18272957286723 
5.194092835580529 
5.205468449300235 
5.216859600491365 
5.22826947997119 
5.239701283803032 
5.251158214191526 
5.262643480379595 
5.274160299547413 
5.2857118977135675 
5.297301510638727 
5.308932384732009 
5.32060777796035 
5.332330960761106 
5.3441052169581456 
5.355933844681693 
5.367820157292183 
5.379767484308373 
5.391779172339995 
5.403858586025178 
5.416009108972934 
5.428234144710951 
5.440537117638971 
5.45292147398801 
5.465390682785689 
5.477948236827964 
5.4905976536575025 
5.503342476548994 
5.5161862755016715 
5.529132648239317 
5.542185221218032 
5.5553476506420605 
5.568623623487937 
5.582016858537262 
5.5955311074183856 
5.609170155657285 
5.622937823737945 
5.636837968172528 
5.650874482581637 
5.6650512987849675 
5.679372387902668 
5.693841761467705 
5.708463472549545 
5.723241616889479 
5.7381803340478905 
5.75328380856381 
5.768556271127054 
5.784001999763306 
5.799625321032443 
5.815430611240472 
5.831422297665384 
5.847604859797305 
5.863982830593254 
5.8805607977468926 
5.897343404973597 
5.914335353311227 
5.93154140243695 
5.948966372000494 
5.966615142974198 
5.984492659020235 
6.002603927875404 
6.020954022753861 
6.0395480837681985 
6.058391319369263 
6.077489007805109 
6.096846498599514 
6.116469214050446 
6.136362650748931 
6.1565323811187165 
6.176984054977188 
6.197723401117962 
6.21875622891559 
6.240088429952858 
6.261725979671086 
6.283674939043937 
6.305941456275184 
6.328531768520889 
6.351452203636538 
6.374709181949543 
6.398309218057669 
6.4222589226538656 
6.446565004378006 
6.4712342716960745 
6.496273634807307 
6.521690107579832 
6.547490809515357 
6.573682967743429 
6.600273919045862 
6.627271111911863 
6.654682108624459 
6.682514587378793 
6.710776344432898 
6.739475296291524 
6.768619481923675 
6.798217065014417 
6.828276336251651 
6.858805715648444 
6.889813754901586 
6.921309139787046 
6.953300692592963 
6.985797374590906 
7.018808288546037 
7.05234268126692 
7.086409946195688 
7.121019626039266 
7.156181415442418 
7.191905163703348 
7.22820087753262 
7.265078723856183 
7.302549032663254 
7.340622299899906 
7.379309190409106 
7.418620540918099 
7.458567363073919 
7.499160846527898 
7.5404123620700485 
7.5823334648141625 
7.624935897434577 
7.668231593455445 
7.712232680593477 
7.756951484155089 
7.802400530488885 
7.848592550494455 
7.895540483188487 
7.943257479329139 
7.991756905099775 
8.04105234585299 
8.091157609916072 
8.142086732458894 
8.193853979425361 
8.24647385152949 
8.299961088317264 
8.35433067229538 
8.409597833128053 
8.465778051903051 
8.522887065468165 
8.580940870839306 
8.639955729681503 
8.699948172864005 
8.760935005090804 
8.82293330960787 
8.885960452988392 
8.95003408999741 
9.01517216853713 
9.081392934674405 
9.148714937751686 
9.21715703558296 
9.286738399736073 
9.357478520902959 
9.42939721435923 
9.502514625514731 
9.576851235556525 
9.652427867185963 
9.729265690451406 
9.807386228678244 
9.88681136449788 
9.967563345977336 
10.049664792851264 
10.133138702858032 
10.218008458181696 
10.304297832001698 
10.392030995152023 
10.481232522891808 
10.571927401789196 
10.664141036720409 
10.757899257986022 
10.853228328546361 
10.950154951378133 
11.048706276954292 
11.148909910849248 
11.250793921471587 
11.354386847926385 
11.459717708009435 
11.5668160063355 
11.675711742602983 
11.78643541999724 
11.899018053734935 
12.013491179751846 
12.12988686353648 
12.248237709112095 
12.368576868169498 
12.49093804935331 
12.615355527704207 
12.741864154259819 
12.870499365817007 
13.001297194858187 
13.134294279644493 
13.269527874478696 
13.40703586014062 
13.546856754498071 
13.689029723296231 
13.833594591128485 
13.980591852591873 
14.130062683630166 
14.282048953067804 
14.436593234337941 
14.593738817407816 
14.753529720904913 
14.91601070444713 
15.081227281180599 
15.249225730528531 
15.420053111154694 
15.593757274145224 
15.770386876412324 
15.94999139432378 
16.132621137561948 
16.31832726321614 
16.507161790112526 
16.69917761338521 
16.894428519292955 
17.09296920028542 
17.294855270323257 
17.50014328045637 
17.708890734664593 
17.921156105965387 
18.13699885279292 
18.35647943565317 
18.579659334059755 
18.806601063755178 
19.037368194222346 
19.27202536649126 
19.510638311245827 
19.75327386723597 
19.999999999999996 
0.0 
0.19622178109151456 
0.38468202770996385 
0.5656884405165004 
0.7395365502338782 
0.9065102001619953 
1.0668820096112914 
1.2209138190106263 
1.3688571174163995 
1.5109534531208886 
1.6474348280302085 
1.778524076455835 
1.9044352289380786 
2.0253738616955803 
2.1415374322713907 
2.253115601923563 
2.360290545286741 
2.4632372478102376 
2.5621237914582795 
2.6571116291388646 
2.748355848309328 
2.836005424188946 
2.9202034629920592 
3.0010874355788264 
3.078789401905061 
3.153436226637665 
3.225149786287657 
3.294047168198991 
3.3602408617180757 
3.423838941856088 
3.4849452457439765 
3.543659542168232 
3.6000776944642414 
3.6542918170331804 
3.706390425737983 
3.756458582423952 
3.804578033799964 
3.850827344907019 
3.8952820273920614 
3.9380146627964896 
3.9790950210606635 
4.018590174437883 
4.056564607003835 
4.093080319940288 
4.128196932764967 
4.161971780672838 
4.19446000814778 
4.2257146589974575 
4.255786762958396 
4.284725419012672 
4.312577875552243 
4.339389607521806 
4.36520439066612 
4.3900643730030495 
4.41401014363899 
4.43708079903905 
4.459314006860189 
4.480746067451518 
4.501411973122198 
4.521345465273675 
4.540579089489564 
4.559144248673096 
4.57707125431891 
4.594389376002892 
4.611126889170861 
4.627311121304128 
4.642968496537317 
4.658124578801271 
4.672804113561502 
4.687031068220325 
4.700828671248641 
4.714219450111263 
4.7272252680476985 
4.739867359768446 
4.752166366125098 
4.764142367810823 
4.775814918146298 
4.787203075004576 
4.798325431927039 
4.809200148481237 
4.819844979910163 
4.830277306121396 
4.840514160063425 
4.850572255535486 
4.860468014476328 
4.870217593776454 
4.8798369116576135 
4.889341673662619 
4.898747398297923 
4.908069442370814 
4.917323026062609 
4.926523257778772 
4.9356851588165425 
4.944823687890327 
4.953953765554933 
4.963090298566471 
4.972248204220761 
4.981442434708913 
4.990688001529909 
5.0 
5.011598909523299 
5.023159051007915 
5.034683662607613 
5.046175972523751 
5.057639199909546 
5.069076555771797 
5.080491243870338 
5.09188646161545 
5.103265400963504 
5.114631249311067 
5.1259871903877405 
5.13733640514796 
5.148682072662032 
5.1600273710066284 
5.171375478155013 
5.18272957286723 
5.194092835580529 
5.205468449300235 
5.216859600491365 
5.22826947997119 
5.239701283803032 
5.251158214191526 
5.262643480379595 
5.274160299547413 
5.2857118977135675 
5.297301510638727 
5.308932384732009 
5.32060777796035 
5.332330960761106 
5.3441052169581456 
5.355933844681693 
5.367820157292183 
5.379767484308373 
5.391779172339995 
5.403858586025178 
5.416009108972934 
5.428234144710951 
5.440537117638971 
5.45292147398801 
5.465390682785689 
5.477948236827964 
5.4905976536575025 
5.503342476548994 
5.5161862755016715 
5.529132648239317 
5.542185221218032 
5.5553476506420605 
5.568623623487937 
5.582016858537262 
5.5955311074183856 
5.609170155657285 
5.622937823737945 
5.636837968172528 
5.650874482581637 
5.6650512987849675 
5.679372387902668 
5.693841761467705 
5.708463472549545 
5.723241616889479 
5.7381803340478905 
5.75328380856381 
5.768556271127054 
5.784001999763306 
5.799625321032443 
5.815430611240472 
5.831422297665384 
5.847604859797305 
5.863982830593254 
5.8805607977468926 
5.897343404973597 
5.914335353311227 
5.93154140243695 
5.948966372000494 
5.966615142974198 
5.984492659020235 
6.002603927875404 
6.020954022753861 
6.0395480837681985 
6.058391319369263 
6.077489007805109 
6.096846498599514 
6.116469214050446 
6.136362650748931 
6.1565323811187165 
6.176984054977188 
6.197723401117962 
6.21875622891559 
6.240088429952858 
6.261725979671086 
6.283674939043937 
6.305941456275184 
6.328531768520889 
6.351452203636538 
6.374709181949543 
6.398309218057669 
6.4222589226538656 
6.446565004378006 
6.4712342716960745 
6.496273634807307 
6.521690107579832 
6.547490809515357 
6.573682967743429 
6.600273919045862 
6.627271111911863 
6.654682108624459 
6.682514587378793 
6.710776344432898 
6.739475296291524 
6.768619481923675 
6.798217065014417 
6.828276336251651 
6.858805715648444 
6.889813754901586 
6.921309139787046 
6.953300692592963 
6.985797374590906 
7.018808288546037 
7.05234268126692 
7.086409946195688 
7.121019626039266 
7.156181415442418 
7.191905163703348 
7.22820087753262 
7.265078723856183 
7.302549032663254 
7.340622299899906 
7.379309190409106 
7.418620540918099 
7.458567363073919 
7.499160846527898 
7.5404123620700485 
7.5823334648141625 
7.624935897434577 
7.668231593455445 
7.712232680593477 
7.756951484155089 
7.802400530488885 
7.848592550494455 
7.895540483188487 
7.943257479329139 
7.991756905099775 
8.04105234585299 
8.091157609916072 
8.142086732458894 
8.193853979425361 
8.24647385152949 
8.299961088317264 
8.35433067229538 
8.409597833128053 
8.465778051903051 
8.522887065468165 
8.580940870839306 
8.639955729681503 
8.699948172864005 
8.760935005090804 
8.82293330960787 
8.885960452988392 
8.95003408999741 
9.01517216853713 
9.081392934674405 
9.148714937751686 
9.21715703558296 
9.286738399736073 
9.357478520902959 
9.42939721435923 
9.502514625514731 
9.576851235556525 
9.652427867185963 
9.729265690451406 
9.807386228678244 
9.88681136449788 
9.967563345977336 
10.049664792851264 
10.133138702858032 
10.218008458181696 
10.304297832001698 
10.392030995152023 
10.481232522891808 
10.571927401789196 
10.664141036720409 
10.757899257986022 
10.853228328546361 
10.950154951378133 
11.048706276954292 
11.148909910849248 
11.250793921471587 
11.354386847926385 
11.459717708009435 
11.5668160063355 
11.675711742602983 
11.78643541999724 
11.899018053734935 
12.013491179751846 
12.12988686353648 
12.248237709112095 
12.368576868169498 
12.49093804935331 
12.615355527704207 
12.741864154259819 
12.870499365817007 
13.001297194858187 
13.134294279644493 
13.269527874478696 
13.40703586014062 
13.546856754498071 
13.689029723296231 
13.833594591128485 
13.980591852591873 
14.130062683630166 
14.282048953067804 
14.436593234337941 
14.593738817407816 
14.753529720904913 
14.91601070444713 
15.081227281180599 
15.249225730528531 
15.420053111154694 
15.593757274145224 
15.770386876412324 
15.94999139432378 
16.132621137561948 
16.31832726321614 
16.507161790112526 
16.69917761338521 
16.894428519292955 
17.09296920028542 
17.294855270323257 
17.50014328045637 
17.708890734664593 
17.921156105965387 
18.13699885279292 
18.35647943565317 
18.579659334059755 
18.806601063755178 
19.037368194222346 
19.27202536649126 
19.510638311245827 
19.75327386723597 
19.999999999999996 
0.0 
0.19622178109151456 
0.38468202770996385 
0.5656884405165004 
0.7395365502338782 
0.9065102001619953 
1.0668820096112914 
1.2209138190106263 
1.3688571174163995 
1.5109534531208886 
1.6474348280302085 
1.778524076455835 
1.9044352289380786 
2.0253738616955803 
2.1415374322713907 
2.253115601923563 
2.360290545286741 
2.4632372478102376 
2.5621237914582795 
2.6571116291388646 
2.748355848309328 
2.836005424188946 
2.9202034629920592 
3.0010874355788264 
3.078789401905061 
3.153436226637665 
3.225149786287657 
3.294047168198991 
3.3602408617180757 
3.423838941856088 
3.4849452457439765 
3.543659542168232 
3.6000776944642414 
3.6542918170331804 
3.706390425737983 
3.756458582423952 
3.804578033799964 
3.850827344907019 
3.8952820273920614 
3.9380146627964896 
3.9790950210606635 
4.018590174437883 
4.056564607003835 
4.093080319940288 
4.128196932764967 
4.161971780672838 
4.19446000814778 
4.2257146589974575 
4.255786762958396 
4.284725419012672 
4.312577875552243 
4.339389607521806 
4.36520439066612 
4.3900643730030495 
4.41401014363899 
4.43708079903905 
4.459314006860189 
4.480746067451518 
4.501411973122198 
4.521345465273675 
4.540579089489564 
4.559144248673096 
4.57707125431891 
4.594389376002892 
4.611126889170861 
4.627311121304128 
4.642968496537317 
4.658124578801271 
4.672804113561502 
4.687031068220325 
4.700828671248641 
4.714219450111263 
4.7272252680476985 
4.739867359768446 
4.752166366125098 
4.764142367810823 
4.775814918146298 
4.787203075004576 
4.798325431927039 
4.809200148481237 
4.819844979910163 
4.830277306121396 
4.840514160063425 
4.850572255535486 
4.860468014476328 
4.870217593776454 
4.8798369116576135 
4.889341673662619 
4.898747398297923 
4.908069442370814 
4.917323026062609 
4.926523257778772 
4.9356851588165425 
4.944823687890327 
4.953953765554933 
4.963090298566471 
4.972248204220761 
4.981442434708913 
4.990688001529909 
5.0 
5.011598909523299 
5.023159051007915 
5.034683662607613 
5.046175972523751 
5.057639199909546 
5.069076555771797 
5.080491243870338 
5.09188646161545 
5.103265400963504 
5.114631249311067 
5.1259871903877405 
5.13733640514796 
5.148682072662032 
5.1600273710066284 
5.171375478155013 
5.18272957286723 
5.194092835580529 
5.205468449300235 
5.216859600491365 
5.22826947997119 
5.239701283803032 
5.251158214191526 
5.262643480379595 
5.274160299547413 
5.2857118977135675 
5.297301510638727 
5.308932384732009 
5.32060777796035 
5.332330960761106 
5.3441052169581456 
5.355933844681693 
5.367820157292183 
5.379767484308373 
5.391779172339995 
5.403858586025178 
5.416009108972934 
5.428234144710951 
5.440537117638971 
5.45292147398801 
5.465390682785689 
5.477948236827964 
5.4905976536575025 
5.503342476548994 
5.5161862755016715 
5.529132648239317 
5.542185221218032 
5.5553476506420605 
5.568623623487937 
5.582016858537262 
5.5955311074183856 
5.609170155657285 
5.622937823737945 
5.636837968172528 
5.650874482581637 
5.6650512987849675 
5.679372387902668 
5.693841761467705 
5.708463472549545 
5.723241616889479 
5.7381803340478905 
5.75328380856381 
5.768556271127054 
5.784001999763306 
5.799625321032443 
5.815430611240472 
5.831422297665384 
5.847604859797305 
5.863982830593254 
5.8805607977468926 
5.897343404973597 
5.914335353311227 
5.93154140243695 
5.948966372000494 
5.966615142974198 
5.984492659020235 
6.002603927875404 
6.020954022753861 
6.0395480837681985 
6.058391319369263 
6.077489007805109 
6.096846498599514 
6.116469214050446 
6.136362650748931 
6.1565323811187165 
6.176984054977188 
6.197723401117962 
6.21875622891559 
6.240088429952858 
6.261725979671086 
6.283674939043937 
6.305941456275184 
6.328531768520889 
6.351452203636538 
6.374709181949543 
6.398309218057669 
6.4222589226538656 
6.446565004378006 
6.4712342716960745 
6.496273634807307 
6.521690107579832 
6.547490809515357 
6.573682967743429 
6.600273919045862 
6.627271111911863 
6.654682108624459 
6.682514587378793 
6.710776344432898 